ITEM: TIMESTEP
3000
ITEM: NUMBER OF ATOMS
16
ITEM: BOX BOUNDS pp pp pp
0.0000000000000000e+00 2.0000000000000000e+01
0.0000000000000000e+00 2.0000000000000000e+01
0.0000000000000000e+00 3.0000000000000000e+00
ITEM: ATOMS id mol type xu yu zu
       1      1    3        8.694474347896e+00        8.671558110360e+00        3.251558813584e+00
       2      1    3        7.474932708980e+00        7.859228985432e+00        3.571518670232e+00
       3      1    3        6.422619847025e+00        6.883890304108e+00        4.008764178792e+00
       4      1    3        5.223582603585e+00        6.018849763436e+00        4.260594139103e+00
       5      1    3        4.176457773125e+00        4.958041695534e+00        4.426719859930e+00
       6      1    3        3.297401398974e+00        3.743422937561e+00        4.462993908054e+00
       7      1    3        2.626174290542e+00        2.403585729084e+00        4.400525078961e+00
       8      1    3        1.745449847587e+00        1.197840255269e+00        4.258143693031e+00
       9      1    3        9.917792412137e+00        9.349934387202e+00        2.709690127797e+00
      10      1    3        1.081827862612e+00       -1.442855629474e-01        4.167451036379e+00
     101      1    3        1.322154389267e+01        1.534577329559e+01        2.607868517129e-01
     102      1    3        1.302830882507e+01        1.392702992449e+01        7.082782897667e-01
     103      1    3        1.258354186894e+01        1.257686701167e+01        1.187413778280e+00
     104      1    3        1.190105969731e+01        1.133815017934e+01        1.687520725568e+00
     105      1    3        1.100238030275e+01        1.025040969295e+01        2.196827289118e+00
     109      1    3        1.364478993610e+01        1.674766584530e+01       -6.431185041399e-02
