ITEM: TIMESTEP
2493
ITEM: NUMBER OF ATOMS
11
ITEM: BOX BOUNDS pp pp pp
0.0000000000000000e+00 2.0000000000000000e+01
0.0000000000000000e+00 2.0000000000000000e+01
0.0000000000000000e+00 3.0000000000000000e+00
ITEM: ATOMS id mol type xu yu zu
      40      1    3        1.305443581744e+01        4.272380605032e+00       -5.348807338635e-01
      51      1    3        1.593142834741e+01        6.979307080840e+00       -3.359647203146e-01
      52      1    3        1.455316570390e+01        6.389300828547e+00       -3.811309434963e-01
      53      1    3        1.322539688313e+01        5.720455987864e+00       -1.822029197615e-01
      54      1    3        1.206774201222e+01        6.499407304507e+00        3.690344456292e-01
      55      1    3        1.101383471523e+01        7.479141651463e+00        7.928006335840e-01
      56      1    3        1.013114072103e+01        8.532788054001e+00        1.395476389652e+00
      57      1    3        9.053942401062e+00        9.412646470271e+00        1.960718435029e+00
      58      1    3        8.140234297283e+00        1.048812735326e+01        2.472804685387e+00
      59      1    3        1.720789639059e+01        7.736152444153e+00       -1.172052574410e-01
      60      1    3        7.409084045864e+00        1.172812026434e+01        2.896749715056e+00
