ITEM: TIMESTEP
2124
ITEM: NUMBER OF ATOMS
6
ITEM: BOX BOUNDS pp pp pp
0.0000000000000000e+00 2.0000000000000000e+01
0.0000000000000000e+00 2.0000000000000000e+01
0.0000000000000000e+00 3.0000000000000000e+00
ITEM: ATOMS id mol type xu yu zu
      54      1    3        8.856841230184e+00        1.038626743594e+01        1.552166903596e+00
      55      1    3        1.027769441137e+01        1.021494619807e+01        1.177534265259e+00
      56      1    3        1.087833354500e+01        1.149684495289e+01        1.332249530511e+00
      57      1    3        9.798329089318e+00        1.239618769589e+01        1.794282811747e+00
      58      1    3        8.377066995745e+00        1.179814552366e+01        1.992212166935e+00
      60      1    3        7.059247289989e+00        1.236204253475e+01        2.434780025835e+00
