ITEM: TIMESTEP
2574
ITEM: NUMBER OF ATOMS
12
ITEM: BOX BOUNDS pp pp pp
0.0000000000000000e+00 2.0000000000000000e+01
0.0000000000000000e+00 2.0000000000000000e+01
0.0000000000000000e+00 3.0000000000000000e+00
ITEM: ATOMS id mol type xu yu zu
      21      1    3        7.012572858264e+00        1.234013701958e+01        1.920396780695e+00
      22      1    3        8.284328456165e+00        1.161498320227e+01        1.593210706337e+00
      23      1    3        9.435160519562e+00        1.067981330028e+01        1.367341259169e+00
      24      1    3        1.083472504579e+01        1.112384684950e+01        1.674349598722e+00
      25      1    3        1.226925671503e+01        1.132106594149e+01        2.066295986467e+00
      26      1    3        1.365736647412e+01        1.177056899620e+01        2.414659442861e+00
      27      1    3        1.492721834299e+01        1.242464087766e+01        2.873100248062e+00
      28      1    3        1.622053508114e+01        1.315472225000e+01        3.083550309495e+00
      29      1    3        5.629321728469e+00        1.282865611882e+01        2.233864071261e+00
      30      1    3        1.738159534051e+01        1.409544741672e+01        3.213693041586e+00
      51      1    3        9.186211873125e+00        9.298521762501e+00        8.359056387196e-01
      59      1    3        8.720139966706e+00        7.925388881399e+00        4.496538936990e-01
