ITEM: TIMESTEP
3000
ITEM: NUMBER OF ATOMS
5
ITEM: BOX BOUNDS pp pp pp
0.0000000000000000e+00 2.0000000000000000e+01
0.0000000000000000e+00 2.0000000000000000e+01
0.0000000000000000e+00 3.0000000000000000e+00
ITEM: ATOMS id mol type xu yu zu
      11      1    3        8.706066516176e+00        9.070730393458e+00        1.343239609900e+00
      12      1    3        9.086361023217e+00        7.622497541659e+00        1.433294974934e+00
      13      1    3        9.221314533752e+00        6.128644980960e+00        1.445455773241e+00
      14      1    3        9.612801160496e+00        4.680989696164e+00        1.478460976227e+00
      19      1    3        8.583411428963e+00        1.056228356346e+01        1.241938867429e+00
