ITEM: TIMESTEP
3000
ITEM: NUMBER OF ATOMS
2
ITEM: BOX BOUNDS pp pp pp
0.0000000000000000e+00 2.0000000000000000e+01
0.0000000000000000e+00 2.0000000000000000e+01
0.0000000000000000e+00 3.0000000000000000e+00
ITEM: ATOMS id mol type xu yu zu
      48      1    3        9.003893175636e+00        9.756143894033e+00        1.487381868995e+00
      50      1    3        1.049286721916e+01        9.937055938303e+00        1.471283195579e+00
