ITEM: TIMESTEP
2546
ITEM: NUMBER OF ATOMS
11
ITEM: BOX BOUNDS pp pp pp
0.0000000000000000e+00 2.0000000000000000e+01
0.0000000000000000e+00 2.0000000000000000e+01
0.0000000000000000e+00 3.0000000000000000e+00
ITEM: ATOMS id mol type xu yu zu
      21      1    3        4.399666381836e+00        1.136818746217e+01        2.934163688659e+00
      22      1    3        5.820493273493e+00        1.157284760138e+01        2.498548953693e+00
      23      1    3        7.250261412592e+00        1.151583966549e+01        2.048168064791e+00
      24      1    3        8.650572111393e+00        1.119843212548e+01        1.613906198019e+00
      25      1    3        9.995340267161e+00        1.063681009058e+01        1.258721494447e+00
      26      1    3        1.121467487471e+01        1.150715146156e+01        1.331052152217e+00
      27      1    3        1.252346416785e+01        1.219866633799e+01        1.573261656266e+00
      28      1    3        1.392104373244e+01        1.265131274584e+01        1.876456057105e+00
      29      1    3        2.938640815503e+00        1.140257409976e+01        3.272416849855e+00
      30      1    3        1.538225461685e+01        1.285181619316e+01        2.149935056464e+00
      76      1    3        1.012067541993e+01        9.204019743677e+00        8.321870536304e-01
