ITEM: TIMESTEP
3000
ITEM: NUMBER OF ATOMS
7
ITEM: BOX BOUNDS pp pp pp
0.0000000000000000e+00 2.0000000000000000e+01
0.0000000000000000e+00 2.0000000000000000e+01
0.0000000000000000e+00 3.0000000000000000e+00
ITEM: ATOMS id mol type xu yu zu
      83      1    3        1.666283148919e+01        7.475137740886e+00        3.000630625019e+00
      84      1    3        1.521464833833e+01        7.717579840867e+00        2.693702382526e+00
      85      1    3        1.384557687521e+01        8.198034340549e+00        2.312604329112e+00
      86      1    3        1.242128745879e+01        8.424933408854e+00        1.899890804173e+00
      87      1    3        1.106107351050e+01        8.905573501848e+00        1.488404508068e+00
      88      1    3        9.802129685616e+00        9.625841589862e+00        1.105494823795e+00
      90      1    3        8.671211229329e+00        1.056181620670e+01        7.968643066699e-01
