ITEM: TIMESTEP
2064
ITEM: NUMBER OF ATOMS
6
ITEM: BOX BOUNDS pp pp pp
0.0000000000000000e+00 2.0000000000000000e+01
0.0000000000000000e+00 2.0000000000000000e+01
0.0000000000000000e+00 3.0000000000000000e+00
ITEM: ATOMS id mol type xu yu zu
       4      1    3        7.015728085332e+00        1.333223291249e+01        2.300471186154e+00
       5      1    3        8.224218889856e+00        1.408497413933e+01        2.420114948212e+00
       6      1    3        8.343340327803e+00        1.258216353931e+01        2.140439396275e+00
       7      1    3        9.143086858061e+00        1.133675312985e+01        1.896877514440e+00
       8      1    3        1.006111574088e+01        1.023101429691e+01        1.466836793140e+00
      10      1    3        1.075930528110e+01        8.990111651672e+00        9.943766474334e-01
