ITEM: TIMESTEP
2041
ITEM: NUMBER OF ATOMS
19
ITEM: BOX BOUNDS pp pp pp
0.0000000000000000e+00 2.0000000000000000e+01
0.0000000000000000e+00 2.0000000000000000e+01
0.0000000000000000e+00 3.0000000000000000e+00
ITEM: ATOMS id mol type xu yu zu
       1      1    3        2.718172620125e+01        1.271571297258e+01       -3.224852717235e-01
       2      1    3        2.579503699667e+01        1.221562795193e+01       -4.565960111723e-02
       3      1    3        2.452721807780e+01        1.149484569780e+01        3.046792153876e-01
       4      1    3        2.336102809303e+01        1.057642799841e+01        5.184133352364e-01
       5      1    3        2.204965340681e+01        9.875022488839e+00        7.114332238903e-01
       6      1    3        2.074263157301e+01        9.142973734072e+00        6.452356550164e-01
       7      1    3        1.949679886201e+01        8.326790729014e+00        8.192646591204e-01
       8      1    3        1.813846539944e+01        7.736877358675e+00        1.055469570631e+00
       9      1    3        2.856464200909e+01        1.329559751453e+01       -3.506340425075e-01
      71      1    3        1.631738454188e+01        4.492007670922e+00        2.158859082665e+00
      72      1    3        1.643368871707e+01        5.960970263938e+00        1.880279401263e+00
      73      1    3        1.673616198421e+01        7.359230378866e+00        1.430567260978e+00
      74      1    3        1.563596617971e+01        8.376679671304e+00        1.353850790185e+00
      75      1    3        1.470534925329e+01        9.553272638371e+00        1.386664320955e+00
      76      1    3        1.396779764415e+01        1.085053754939e+01        1.542930876599e+00
      77      1    3        1.326896734641e+01        1.217442447086e+01        1.441951850542e+00
      78      1    3        1.235610415742e+01        1.335636100759e+01        1.297746055380e+00
      79      1    3        1.595326091096e+01        3.050875892122e+00        2.358823974389e+00
      80      1    3        1.125164105911e+01        1.436161817913e+01        1.155606636424e+00
