ITEM: TIMESTEP
2048
ITEM: NUMBER OF ATOMS
16
ITEM: BOX BOUNDS pp pp pp
0.0000000000000000e+00 2.0000000000000000e+01
0.0000000000000000e+00 2.0000000000000000e+01
0.0000000000000000e+00 3.0000000000000000e+00
ITEM: ATOMS id mol type xu yu zu
      41      1    3        6.296747877647e+00        2.048313046308e+01        2.378014957602e+00
      42      1    3        7.535354389985e+00        1.964638885170e+01        2.252233690192e+00
      43      1    3        8.895287946237e+00        1.901371358812e+01        2.234599310746e+00
      44      1    3        1.033655052926e+01        1.860678200788e+01        2.319480825825e+00
      45      1    3        1.182805269610e+01        1.845102383942e+01        2.352905253520e+00
      49      1    3        5.220770031562e+00        2.150789486766e+01        2.583585931128e+00
     101      1    3        1.327964955162e+01        1.809632937068e+01        2.221930319636e+00
     102      1    3        1.371100599403e+01        1.666128730461e+01        2.295415928818e+00
     103      1    3        1.406117848314e+01        1.521280456829e+01        2.121362214985e+00
     104      1    3        1.417756165312e+01        1.374491516259e+01        1.833279743706e+00
     105      1    3        1.403297601740e+01        1.227796184026e+01        1.553470086427e+00
     106      1    3        1.400117260774e+01        1.077875560871e+01        1.507000130811e+00
     107      1    3        1.418916803085e+01        9.301852259280e+00        1.321913297867e+00
     108      1    3        1.460738908464e+01        7.890250369717e+00        1.033367962492e+00
     109      1    3        1.429996337086e+01        1.917686669546e+01        2.017765655742e+00
     110      1    3        1.526336739483e+01        6.558536800951e+00        8.173806085026e-01
