ITEM: TIMESTEP
2001
ITEM: NUMBER OF ATOMS
1
ITEM: BOX BOUNDS pp pp pp
0.0000000000000000e+00 2.0000000000000000e+01
0.0000000000000000e+00 2.0000000000000000e+01
0.0000000000000000e+00 3.0000000000000000e+00
ITEM: ATOMS id mol type xu yu zu
      20      1    3        9.509700000000e+00        9.817600000000e+00        1.487550000000e+00
