ITEM: TIMESTEP
3000
ITEM: NUMBER OF ATOMS
11
ITEM: BOX BOUNDS pp pp pp
0.0000000000000000e+00 2.0000000000000000e+01
0.0000000000000000e+00 2.0000000000000000e+01
0.0000000000000000e+00 3.0000000000000000e+00
ITEM: ATOMS id mol type xu yu zu
      11      1    3        7.354120454149e+00        1.131351693058e+01        2.177430844143e+00
      12      1    3        8.673484024951e+00        1.082178399081e+01        1.659816708420e+00
      13      1    3        9.869934649671e+00        1.009759179512e+01        1.116893354458e+00
      14      1    3        1.090493464912e+01        9.163801401765e+00        5.626228134591e-01
      15      1    3        1.174447900470e+01        8.051079147710e+00        7.860766303519e-03
      16      1    3        1.236060931182e+01        6.796819834426e+00       -5.377516916655e-01
      17      1    3        1.273221123182e+01        5.444463658370e+00       -1.070535630495e+00
      18      1    3        1.334208240988e+01        4.147955984457e+00       -1.514791241231e+00
      19      1    3        5.951598034415e+00        1.155971678885e+01        2.649580372592e+00
      20      1    3        1.371862500167e+01        2.747900793162e+00       -1.900026948053e+00
      99      1    3        4.502778749982e+00        1.156161055783e+01        3.038496920618e+00
