ITEM: TIMESTEP
3000
ITEM: NUMBER OF ATOMS
8
ITEM: BOX BOUNDS pp pp pp
0.0000000000000000e+00 2.0000000000000000e+01
0.0000000000000000e+00 2.0000000000000000e+01
0.0000000000000000e+00 3.0000000000000000e+00
ITEM: ATOMS id mol type xu yu zu
      41      1    3        1.081664465465e+01        9.606615400604e+00        1.047001976126e+00
      42      1    3        1.089348733173e+01        8.141138311638e+00        1.358072395696e+00
      43      1    3        1.070900835352e+01        6.687244215160e+00        1.678203024238e+00
      44      1    3        1.077168986002e+01        5.243783946810e+00        2.081911143839e+00
      45      1    3        1.094666167845e+01        3.763906660135e+00        2.253445967524e+00
      46      1    3        1.087123493488e+01        2.286414286975e+00        2.501479627403e+00
      47      1    3        1.104004514902e+01        8.040211256175e-01        2.656728444711e+00
      49      1    3        1.098941165368e+01        1.107824717485e+01        8.132819281969e-01
