ITEM: TIMESTEP
3000
ITEM: NUMBER OF ATOMS
17
ITEM: BOX BOUNDS pp pp pp
0.0000000000000000e+00 2.0000000000000000e+01
0.0000000000000000e+00 2.0000000000000000e+01
0.0000000000000000e+00 3.0000000000000000e+00
ITEM: ATOMS id mol type xu yu zu
      41      1    3        3.971355337107e-01        1.992912131370e+01       -5.768669173225e-02
      42      1    3        1.453978121212e+00        1.891351716204e+01        2.611655705855e-01
      43      1    3        2.568590271751e+00        1.791186044414e+01        3.260262229309e-01
      44      1    3        3.819487526750e+00        1.710347344001e+01        5.023116916876e-01
      45      1    3        5.195294268918e+00        1.651804988752e+01        6.234827434836e-01
      46      1    3        6.582271579636e+00        1.596546961049e+01        4.857525075765e-01
      49      1    3       -5.070544935715e-01        2.111124790004e+01       -2.450065264795e-01
     101      1    3        1.015860578192e+01        1.757595200365e+01       -4.855057384881e-01
     102      1    3        9.013683638408e+00        1.671200313140e+01       -4.594219165184e-02
     103      1    3        8.047941552358e+00        1.565470784105e+01        4.027318368869e-01
     104      1    3        8.546790806293e+00        1.428916312947e+01        7.676290698873e-01
     105      1    3        9.002973172155e+00        1.299502167575e+01        1.375645058284e+00
     106      1    3        9.695782802800e+00        1.177037007878e+01        1.895254199811e+00
     107      1    3        1.060812743884e+01        1.068647824529e+01        2.389041783029e+00
     108      1    3        1.171168129218e+01        9.776772557133e+00        2.841633675294e+00
     109      1    3        1.145372410169e+01        1.824110483910e+01       -8.469706154195e-01
     110      1    3        1.266736227439e+01        8.675756938612e+00        3.194863607063e+00
