ITEM: TIMESTEP
2033
ITEM: NUMBER OF ATOMS
11
ITEM: BOX BOUNDS pp pp pp
0.0000000000000000e+00 2.0000000000000000e+01
0.0000000000000000e+00 2.0000000000000000e+01
0.0000000000000000e+00 3.0000000000000000e+00
ITEM: ATOMS id mol type xu yu zu
      21      1    3        8.986818055139e+00        9.902721864646e+00        2.472939641868e+00
      22      1    3        9.698947153668e+00        1.117529281136e+01        2.118889079303e+00
      23      1    3        1.099985509421e+01        1.196104857909e+01        1.702469884346e+00
      24      1    3        1.245941608960e+01        1.200381508839e+01        1.360119499160e+00
      25      1    3        1.389270087848e+01        1.230521932701e+01        1.034843422007e+00
      26      1    3        1.536755777091e+01        1.256910249077e+01        9.644933626260e-01
      27      1    3        1.686495007264e+01        1.261801853992e+01        1.040907434286e+00
      28      1    3        1.833915903407e+01        1.245063855630e+01        1.262467023593e+00
      29      1    3        8.056741337606e+00        8.775212118233e+00        2.810046486364e+00
      30      1    3        1.983735323507e+01        1.248861823899e+01        1.324490814126e+00
      66      1    3        9.710885719418e+00        1.261745148447e+01        1.900659065051e+00
