ITEM: TIMESTEP
2050
ITEM: NUMBER OF ATOMS
14
ITEM: BOX BOUNDS pp pp pp
0.0000000000000000e+00 2.0000000000000000e+01
0.0000000000000000e+00 2.0000000000000000e+01
0.0000000000000000e+00 3.0000000000000000e+00
ITEM: ATOMS id mol type xu yu zu
       1      1    3       -8.490840341133e-01        8.604591849839e+00        1.862458139894e+00
       2      1    3        5.811856483929e-01        8.291421882847e+00        1.536151772835e+00
       3      1    3        2.064793985302e+00        8.093927130107e+00        1.437475651556e+00
       4      1    3        3.539526412654e+00        7.872584251314e+00        1.598730086721e+00
       5      1    3        4.985184440200e+00        7.473831530334e+00        1.570469170404e+00
       6      1    3        6.353324616419e+00        6.869369575541e+00        1.682965684071e+00
       7      1    3        7.603792171382e+00        6.081211142140e+00        1.938271176216e+00
       8      1    3        7.528296734602e+00        4.595335250722e+00        2.129562486355e+00
       9      1    3       -2.238548953096e+00        9.136886247435e+00        2.052529801060e+00
      10      1    3        7.702308305137e+00        3.109683321554e+00        2.241944420742e+00
      56      1    3        8.929929665029e+00        6.779103588836e+00        2.002201077466e+00
      57      1    3        1.019209686437e+01        7.571308166283e+00        1.831000947125e+00
      58      1    3        1.130173518721e+01        8.571984140125e+00        1.699239078130e+00
      60      1    3        1.221934764638e+01        9.748259362958e+00        1.542897792520e+00
