ITEM: TIMESTEP
2171
ITEM: NUMBER OF ATOMS
13
ITEM: BOX BOUNDS pp pp pp
0.0000000000000000e+00 2.0000000000000000e+01
0.0000000000000000e+00 2.0000000000000000e+01
0.0000000000000000e+00 3.0000000000000000e+00
ITEM: ATOMS id mol type xu yu zu
      81      1    3        5.593659122322e+00        6.551914355198e+00        6.860667021532e-02
      82      1    3        6.859503109159e+00        7.217910114555e+00        5.207959569106e-01
      83      1    3        7.990084602910e+00        8.106388869064e+00        9.481425947579e-01
      84      1    3        9.174900383652e+00        9.009760378232e+00        1.120856458559e+00
      85      1    3        1.048559948529e+01        9.738504962275e+00        1.145037657757e+00
      86      1    3        1.177227781374e+01        8.969354360594e+00        1.094342018673e+00
      87      1    3        1.310437719606e+01        8.334845704286e+00        8.242572419598e-01
      88      1    3        1.429679752778e+01        7.489574126402e+00        4.868107406047e-01
      89      1    3        4.457651199350e+00        5.662616251505e+00       -3.424583499239e-01
      90      1    3        1.557528616237e+01        6.711550325756e+00        3.863006401728e-01
     101      1    3        1.044954614393e+01        1.270099665649e+01        1.538141923744e+00
     102      1    3        1.050975978677e+01        1.123640514843e+01        1.219493571385e+00
     109      1    3        1.064170313779e+01        1.416766106880e+01        1.787391304586e+00
