ITEM: TIMESTEP
2034
ITEM: NUMBER OF ATOMS
11
ITEM: BOX BOUNDS pp pp pp
0.0000000000000000e+00 2.0000000000000000e+01
0.0000000000000000e+00 2.0000000000000000e+01
0.0000000000000000e+00 3.0000000000000000e+00
ITEM: ATOMS id mol type xu yu zu
      41      1    3        8.962156381924e+00        1.184592252325e+01        1.631663928052e+00
      42      1    3        1.002347077571e+01        1.080933627851e+01        1.853803137962e+00
      43      1    3        1.146940338609e+01        1.116527034581e+01        1.673152177351e+00
      44      1    3        1.295634521798e+01        1.136168672759e+01        1.695085956694e+00
      45      1    3        1.438695291748e+01        1.181257813776e+01        1.692959231160e+00
      46      1    3        1.572238722571e+01        1.248890821958e+01        1.598000724111e+00
      47      1    3        1.693340660675e+01        1.337403070982e+01        1.599642301830e+00
      48      1    3        1.827821890433e+01        1.403736861772e+01        1.636860176480e+00
      49      1    3        8.056586420910e+00        1.303896038552e+01        1.548380183946e+00
      50      1    3        1.952636827814e+01        1.485568221819e+01        1.486905006482e+00
      55      1    3        9.638545910662e+00        9.416463006641e+00        2.255990466360e+00
