ITEM: TIMESTEP
3000
ITEM: NUMBER OF ATOMS
9
ITEM: BOX BOUNDS pp pp pp
0.0000000000000000e+00 2.0000000000000000e+01
0.0000000000000000e+00 2.0000000000000000e+01
0.0000000000000000e+00 3.0000000000000000e+00
ITEM: ATOMS id mol type xu yu zu
      31      1    3        9.076499866377e+00        8.696914376472e+00        2.097412420281e+00
      32      1    3        8.377286860706e+00        9.967632738025e+00        1.714381911252e+00
      33      1    3        7.471083319200e+00        1.108464281642e+01        1.288220832197e+00
      34      1    3        6.784353611131e+00        1.234358082839e+01        8.478236388957e-01
      35      1    3        6.337829943070e+00        1.370658853847e+01        4.080539089841e-01
      36      1    3        5.649708579556e+00        1.497231193658e+01       -1.009321526160e-02
      37      1    3        5.194305970801e+00        1.635074574884e+01       -3.881397631869e-01
      38      1    3        4.974389988906e+00        1.780531893911e+01       -6.814875914481e-01
      39      1    3        9.992643743707e+00        7.548344583743e+00        2.400246586650e+00
