ITEM: TIMESTEP
2101
ITEM: NUMBER OF ATOMS
13
ITEM: BOX BOUNDS pp pp pp
0.0000000000000000e+00 2.0000000000000000e+01
0.0000000000000000e+00 2.0000000000000000e+01
0.0000000000000000e+00 3.0000000000000000e+00
ITEM: ATOMS id mol type xu yu zu
      31      1    3        6.301363803462e+00        1.229929045641e+01        2.799615089784e+00
      32      1    3        7.198404720930e+00        1.114465367606e+01        2.464552539166e+00
      39      1    3        5.601733149304e+00        1.360230771297e+01        3.050026420699e+00
      71      1    3        3.559019566669e+00        2.574622143386e+00        7.145976297892e-01
      72      1    3        4.572722974980e+00        3.679457296520e+00        6.738427941285e-01
      73      1    3        5.546794677504e+00        4.799349217626e+00        8.908209682701e-01
      74      1    3        6.311960101379e+00        6.074809410293e+00        1.085010828913e+00
      75      1    3        6.842225311085e+00        7.458383949900e+00        1.318502611279e+00
      76      1    3        7.594982861764e+00        8.721230440890e+00        1.616272113257e+00
      77      1    3        8.113592320742e+00        1.010074864100e+01        1.895607578753e+00
      78      1    3        9.546463654581e+00        1.043664368230e+01        1.604913008891e+00
      79      1    3        2.381286965541e+00        1.654320952584e+00        8.411811480447e-01
      80      1    3        1.099123433884e+01        1.083802459323e+01        1.566054708630e+00
