ITEM: TIMESTEP
3000
ITEM: NUMBER OF ATOMS
6
ITEM: BOX BOUNDS pp pp pp
0.0000000000000000e+00 2.0000000000000000e+01
0.0000000000000000e+00 2.0000000000000000e+01
0.0000000000000000e+00 3.0000000000000000e+00
ITEM: ATOMS id mol type xu yu zu
      71      1    3        1.069615147605e+01        8.967004118632e+00        1.508699023488e+00
      72      1    3        9.408847799176e+00        9.662803153347e+00        1.838881468006e+00
      73      1    3        8.268846123334e+00        1.057410060310e+01        2.185730978053e+00
      74      1    3        7.306532890295e+00        1.167658499774e+01        2.515561507734e+00
      75      1    3        6.159560583227e+00        1.260799457977e+01        2.774668134588e+00
      79      1    3        1.185714405512e+01        8.053338977450e+00        1.248855188170e+00
