ITEM: TIMESTEP
2191
ITEM: NUMBER OF ATOMS
13
ITEM: BOX BOUNDS pp pp pp
0.0000000000000000e+00 2.0000000000000000e+01
0.0000000000000000e+00 2.0000000000000000e+01
0.0000000000000000e+00 3.0000000000000000e+00
ITEM: ATOMS id mol type xu yu zu
      61      1    3        1.031634556675e+01        1.208238524886e+01        5.662525445609e-01
      62      1    3        1.165463779252e+01        1.275559917976e+01        4.953665973733e-01
      63      1    3        1.290451971508e+01        1.357441437482e+01        6.242397470900e-01
      64      1    3        1.399989086506e+01        1.456790942478e+01        8.743598650736e-01
      65      1    3        1.489985406649e+01        1.572805478239e+01        1.180593424600e+00
      66      1    3        1.557806737535e+01        1.702883651369e+01        1.493310062593e+00
      67      1    3        1.601972916246e+01        1.843592314850e+01        1.767052219480e+00
      68      1    3        1.622280588088e+01        1.990998111872e+01        1.956330236830e+00
      69      1    3        9.077548927199e+00        1.283241655360e+01        1.745943270907e-01
      70      1    3        1.663729901084e+01        2.135100673335e+01        1.995437655897e+00
      71      1    3        9.861844612499e+00        9.287318569666e+00        1.523676684864e+00
      72      1    3        1.021642007504e+01        1.065904515544e+01        1.029143810747e+00
      79      1    3        9.755918528227e+00        7.856452337705e+00        1.963328055080e+00
