ITEM: TIMESTEP
3000
ITEM: NUMBER OF ATOMS
4
ITEM: BOX BOUNDS pp pp pp
0.0000000000000000e+00 2.0000000000000000e+01
0.0000000000000000e+00 2.0000000000000000e+01
0.0000000000000000e+00 3.0000000000000000e+00
ITEM: ATOMS id mol type xu yu zu
       1      1    3        1.031229387798e+01        1.137908128347e+01        1.385251638174e+00
       2      1    3        9.925689550694e+00        9.949411546991e+00        1.146973081727e+00
       3      1    3        9.792892565004e+00        8.468863864595e+00        9.457246024709e-01
       9      1    3        1.094375722949e+01        1.272478203583e+01        1.586500117539e+00
