ITEM: TIMESTEP
3000
ITEM: NUMBER OF ATOMS
10
ITEM: BOX BOUNDS pp pp pp
0.0000000000000000e+00 2.0000000000000000e+01
0.0000000000000000e+00 2.0000000000000000e+01
0.0000000000000000e+00 3.0000000000000000e+00
ITEM: ATOMS id mol type xu yu zu
       1      1    3       -3.094761218323e-01        1.397880103510e+01        1.305646795016e+00
       2      1    3        1.178039265260e+00        1.402982719660e+01        1.492201414632e+00
       3      1    3        2.651111281298e+00        1.381993678040e+01        1.682242646138e+00
       4      1    3        4.090583957674e+00        1.339994951870e+01        1.720665231098e+00
       5      1    3        5.445420128752e+00        1.276070408505e+01        1.644797350363e+00
       6      1    3        6.882347786436e+00        1.235789732545e+01        1.493064197699e+00
       7      1    3        8.223352767803e+00        1.171782260596e+01        1.287807056937e+00
       8      1    3        9.430972878411e+00        1.085287545257e+01        1.078875306997e+00
       9      1    3       -1.786729138478e+00        1.418732815223e+01        1.149630891010e+00
      10      1    3        1.077468887733e+01        1.020663367788e+01        9.148608506708e-01
