ITEM: TIMESTEP
2057
ITEM: NUMBER OF ATOMS
3
ITEM: BOX BOUNDS pp pp pp
0.0000000000000000e+00 2.0000000000000000e+01
0.0000000000000000e+00 2.0000000000000000e+01
0.0000000000000000e+00 3.0000000000000000e+00
ITEM: ATOMS id mol type xu yu zu
       7      1    3        9.756730519610e+00        8.824721070705e+00        1.765033727625e+00
       8      1    3        1.095556190035e+01        9.622870798440e+00        1.345463908893e+00
      10      1    3        9.595865019289e+00        1.025655530481e+01        1.347602449869e+00
