ITEM: TIMESTEP
2300
ITEM: NUMBER OF ATOMS
11
ITEM: BOX BOUNDS pp pp pp
0.0000000000000000e+00 2.0000000000000000e+01
0.0000000000000000e+00 2.0000000000000000e+01
0.0000000000000000e+00 3.0000000000000000e+00
ITEM: ATOMS id mol type xu yu zu
      18      1    3        1.532614199648e+01        3.137760249399e+00       -9.510772388804e-01
      81      1    3        1.574833414125e+01        4.523861524222e+00       -5.624696469045e-01
      82      1    3        1.471560782089e+01        5.591040257374e+00       -3.511711036908e-01
      83      1    3        1.357688429923e+01        6.490075433201e+00        3.018383431491e-02
      84      1    3        1.228696718285e+01        7.181636845755e+00        3.588252409279e-01
      85      1    3        1.111417898645e+01        7.938403958266e+00        9.091195238144e-01
      86      1    3        9.813453679484e+00        8.465960132693e+00        1.438922200237e+00
      87      1    3        8.597840263110e+00        9.223830104111e+00        1.884525784069e+00
      88      1    3        7.550794121437e+00        1.016764882409e+01        2.398050881836e+00
      89      1    3        1.720323984564e+01        4.842559045927e+00       -3.845881982422e-01
      90      1    3        6.642654866693e+00        1.129552048696e+01        2.789899478944e+00
