ITEM: TIMESTEP
3000
ITEM: NUMBER OF ATOMS
3
ITEM: BOX BOUNDS pp pp pp
0.0000000000000000e+00 2.0000000000000000e+01
0.0000000000000000e+00 2.0000000000000000e+01
0.0000000000000000e+00 3.0000000000000000e+00
ITEM: ATOMS id mol type xu yu zu
      77      1    3        1.230347925506e+01        9.054323250496e+00        1.427463828534e+00
      78      1    3        1.098418739066e+01        9.767175341889e+00        1.464124788808e+00
      80      1    3        9.561138013826e+00        1.024130211552e+01        1.476103798787e+00
