ITEM: TIMESTEP
2064
ITEM: NUMBER OF ATOMS
9
ITEM: BOX BOUNDS pp pp pp
0.0000000000000000e+00 2.0000000000000000e+01
0.0000000000000000e+00 2.0000000000000000e+01
0.0000000000000000e+00 3.0000000000000000e+00
ITEM: ATOMS id mol type xu yu zu
      21      1    3        1.187043970107e+01        1.506768517705e+01        1.049707336968e+00
      22      1    3        1.154158680876e+01        1.647873743164e+01        7.510451414955e-01
      23      1    3        1.015110410435e+01        1.649753302592e+01        4.439032160000e-01
      24      1    3        9.690663745579e+00        1.509723772032e+01        5.681442242902e-01
      25      1    3        1.073059575511e+01        1.401361591180e+01        9.699914399034e-01
      26      1    3        1.066139460226e+01        1.253198930340e+01        1.193931093244e+00
      27      1    3        1.036996576891e+01        1.106320507140e+01        1.281815555062e+00
      28      1    3        9.855529561056e+00        9.654621597709e+00        1.247634551519e+00
      30      1    3        9.536362368005e+00        8.202979626458e+00        1.045179530198e+00
