ITEM: TIMESTEP
           0
ITEM: NUMBER OF ATOMS
          50
ITEM: BOX BOUNDS pp pp pp
      0.00000000E+00      1.53262060E+01
      0.00000000E+00      1.53262060E+01
      0.00000000E+00      1.53262060E+01
ITEM: ATOMS id type xu yu zu
         129           1      3.99239380E+01      4.03665500E+01      2.91062190E+01
         130           2      4.09764240E+01      4.02603430E+01      2.93029830E+01
         131           2      3.96307110E+01      3.95187540E+01      2.84693580E+01
         132           1      3.91376620E+01      4.03525000E+01      3.04121410E+01
         133           2      3.90350930E+01      4.14132710E+01      3.08070430E+01
         134           2      3.96329100E+01      3.97493050E+01      3.11833400E+01
         135           1      3.76865780E+01      3.98235140E+01      3.02712670E+01
         136           2      3.78444500E+01      3.88217310E+01      2.98214610E+01
         137           2      3.70616540E+01      4.04190320E+01      2.94929130E+01
         138           1      3.68432320E+01      3.97049450E+01      3.14812240E+01
         139           2      3.67761610E+01      4.06941810E+01      3.20661580E+01
         140           2      3.73122820E+01      3.90779990E+01      3.22233600E+01
         141           1      3.54765000E+01      3.92822710E+01      4.64261480E+01
         142           2      3.51804400E+01      3.96335080E+01      4.54245620E+01
         153           1      3.98455570E+01      4.16316730E+01      2.81252870E+01
         154           2      3.87928680E+01      2.66599290E+01      2.78665840E+01
         155           2      4.02612340E+01      4.25433650E+01      2.85439140E+01
         156           2      4.03104270E+01      4.11475360E+01      2.72562810E+01
         321           1      3.52779590E+01      3.76934340E+01      3.10780380E+01
         322           2      3.62727350E+01      3.72314800E+01      3.07649520E+01
         323           2      3.46503880E+01      3.97079790E+01      3.17700250E+01
         324           1      3.42301470E+01      3.72316460E+01      4.54046200E+01
         325           2      3.32490250E+01      3.77917980E+01      4.54083900E+01
         326           2      3.38214010E+01      3.61042120E+01      4.56767330E+01
         327           1      3.47732890E+01      3.71655530E+01      4.38878140E+01
         328           2      3.57905170E+01      3.66944150E+01      4.40343720E+01
         329           2      3.49658570E+01      3.81426500E+01      4.34748930E+01
         330           1      3.39286670E+01      3.60649680E+01      4.31272770E+01
         331           2      3.29189920E+01      3.60577180E+01      4.31898170E+01
         332           2      3.40830450E+01      3.51591790E+01      4.38865580E+01
         333           1      3.41065370E+01      3.58605780E+01      4.16627380E+01
         334           2      3.34839200E+01      3.51113460E+01      4.13747560E+01
         335           2      3.51401540E+01      3.56181000E+01      4.14052630E+01
         336           1      3.37219560E+01      3.72001240E+01      4.08497300E+01
         337           2      3.39396010E+01      3.69575080E+01      3.98076140E+01
         338           2      3.43274070E+01      3.79472570E+01      4.12030940E+01
         339           1      3.22993730E+01      3.77771010E+01      4.12799160E+01
         340           2      3.21513570E+01      3.88632190E+01      4.10039470E+01
         341           2      3.22418890E+01      3.78485830E+01      4.23900190E+01
         342           1      3.10877210E+01      3.70199400E+01      4.06745710E+01
         343           2      3.04097320E+01      3.79244700E+01      4.07215130E+01
         344           2      3.05280880E+01      3.62796320E+01      4.12382650E+01
         345           1      3.48952760E+01      3.72416040E+01      3.25438240E+01
         346           2      3.38239420E+01      3.75771860E+01      3.28748280E+01
         347           2      3.52484480E+01      3.62175940E+01      3.29012800E+01
         348           2      3.55273490E+01      3.79583940E+01      3.32236120E+01
         349           1      3.11679600E+01      3.63894730E+01      3.92363740E+01
         350           2      3.18229850E+01      3.70797850E+01      3.86399230E+01
         351           2      3.16527030E+01      3.54529040E+01      3.93401250E+01
         352           2      3.01519060E+01      3.62855730E+01      3.88761620E+01
