ITEM: TIMESTEP
           0
ITEM: NUMBER OF ATOMS
          33
ITEM: BOX BOUNDS pp pp pp
      0.00000000E+00      1.53262060E+01
      0.00000000E+00      1.53262060E+01
      0.00000000E+00      1.53262060E+01
ITEM: ATOMS id type xu yu zu
          65           1      3.76103900E+01      4.14478430E+01      3.44524180E+01
          66           2      3.78734890E+01      4.16682790E+01      3.34526690E+01
          67           2      3.79816730E+01      4.03309600E+01      3.43856570E+01
          68           1      3.85245630E+01      4.20524420E+01      3.56866530E+01
          69           2      3.88328360E+01      4.14102160E+01      3.64809050E+01
          70           2      3.83016650E+01      4.40661780E+01      3.68695940E+01
          71           1      3.94480020E+01      4.32777460E+01      3.51434590E+01
          72           2      3.94256730E+01      4.33548770E+01      3.40221610E+01
          74           1      4.07645310E+01      2.78212510E+01      3.58467770E+01
          75           2      4.13790090E+01      2.69807530E+01      3.54393670E+01
          76           2      4.04662370E+01      2.74744790E+01      3.69191080E+01
          77           1      4.16723190E+01      2.90316150E+01      3.57496550E+01
          78           2      4.16148380E+01      4.46084430E+01      3.46558010E+01
          79           2      4.28067510E+01      4.43333150E+01      3.58495590E+01
          80           1      4.11903680E+01      3.02726470E+01      3.64068560E+01
          81           2      4.21031130E+01      3.10178780E+01      3.64758600E+01
          82           2      4.09627250E+01      3.01358960E+01      3.74853580E+01
          83           1      3.99908560E+01      3.09463300E+01      3.58183410E+01
          84           2      3.92911930E+01      3.12213470E+01      3.67167350E+01
          85           2      3.96699510E+01      3.02527310E+01      3.50173890E+01
          86           1      4.01285970E+01      3.22505770E+01      3.49540960E+01
          87           2      3.92403660E+01      3.27122350E+01      3.46479710E+01
          88           2      4.04305640E+01      3.16601290E+01      3.39959140E+01
          89           1      3.61855980E+01      4.15201070E+01      3.48847340E+01
          90           2      3.60515400E+01      4.09254930E+01      3.57312440E+01
          91           2      3.57783710E+01      4.26042980E+01      3.50164380E+01
          92           2      3.56355290E+01      4.10826830E+01      3.40282440E+01
          93           1      4.13291080E+01      3.31750000E+01      3.53710350E+01
          94           2      4.10853200E+01      3.37694820E+01      3.62525840E+01
          95           2      4.21425050E+01      3.24650800E+01      3.56816930E+01
          96           2      4.17574830E+01      3.37036230E+01      3.43994070E+01
         208           1      3.81829880E+01      2.82589000E+01      3.58911550E+01
         209           2      3.72550490E+01      2.87197090E+01      3.53078350E+01
