ITEM: TIMESTEP
           0
ITEM: NUMBER OF ATOMS
          33
ITEM: BOX BOUNDS pp pp pp
      0.00000000E+00      1.53262060E+01
      0.00000000E+00      1.53262060E+01
      0.00000000E+00      1.53262060E+01
ITEM: ATOMS id type xu yu zu
         150           1      2.48065790E+01      3.57102080E+01      3.64674240E+01
         152           2      2.53997540E+01      3.56091970E+01      3.74111930E+01
         257           1      4.28548540E+01      3.24246850E+01      3.49226210E+01
         258           2      4.35664320E+01      3.30933160E+01      3.55599390E+01
         259           2      4.00569370E+01      3.66345160E+01      3.60722010E+01
         260           1      4.15479500E+01      3.24051280E+01      3.51220890E+01
         261           2      4.08760570E+01      3.16547050E+01      3.45371830E+01
         263           1      4.07575300E+01      3.33276420E+01      3.60987380E+01
         264           2      4.15631790E+01      3.35735040E+01      3.68641030E+01
         265           2      3.97324650E+01      3.32538600E+01      3.65513240E+01
         266           1      4.04474690E+01      3.46372580E+01      3.53697250E+01
         267           2      4.14306630E+01      3.46753850E+01      3.49052930E+01
         268           2      3.91836230E+01      3.54703430E+01      3.69508050E+01
         269           1      3.93309300E+01      3.45654160E+01      3.42573640E+01
         270           2      3.84507580E+01      3.43825600E+01      3.48980270E+01
         271           2      3.96943300E+01      3.37430830E+01      3.36395830E+01
         272           1      3.89144370E+01      3.57814240E+01      3.34330290E+01
         273           2      3.90188040E+01      3.67140260E+01      3.41451960E+01
         274           2      3.79521790E+01      3.56790750E+01      3.30750040E+01
         275           1      4.00747120E+01      3.61578200E+01      3.24958710E+01
         276           2      4.04449920E+01      3.52258960E+01      3.19323030E+01
         277           2      4.09754230E+01      3.65876320E+01      3.28978630E+01
         278           1      3.97535190E+01      3.72747060E+01      3.13901130E+01
         279           2      3.91722170E+01      3.67795330E+01      3.05676600E+01
         280           2      4.06584940E+01      3.77203630E+01      3.08167110E+01
         281           1      4.35504550E+01      3.15942110E+01      3.39394070E+01
         282           2      4.30062160E+01      3.07229370E+01      3.35591480E+01
         283           2      4.37120510E+01      3.23429020E+01      3.31079120E+01
         284           2      4.45025670E+01      3.11092720E+01      3.43123280E+01
         285           1      3.90256640E+01      3.85298680E+01      3.18735400E+01
         286           2      3.79214530E+01      3.83124710E+01      3.21303230E+01
         287           2      3.95264250E+01      3.89248190E+01      3.27733850E+01
         288           2      3.91357980E+01      3.92920420E+01      3.10567090E+01
