ITEM: TIMESTEP
           0
ITEM: NUMBER OF ATOMS
          15
ITEM: BOX BOUNDS pp pp pp
      0.00000000E+00      1.53262060E+01
      0.00000000E+00      1.53262060E+01
      0.00000000E+00      1.53262060E+01
ITEM: ATOMS id type xu yu zu
         205           1      4.30310840E+01      2.99296620E+01      4.00865620E+01
         206           2      4.28176780E+01      2.91714960E+01      3.92593600E+01
         207           2      4.36100910E+01      3.07412580E+01      3.98785630E+01
         208           1      4.26649910E+01      2.95915600E+01      4.13475310E+01
         210           2      4.31181420E+01      3.02599860E+01      4.21027830E+01
         211           1      4.19395610E+01      4.37705870E+01      4.18988240E+01
         212           2      4.14228400E+01      4.40896320E+01      4.28710350E+01
         213           2      4.27298370E+01      4.30339140E+01      4.22216220E+01
         214           1      4.10417770E+01      4.28706560E+01      4.09011700E+01
         215           2      4.08396790E+01      4.19529370E+01      4.13412400E+01
         216           2      4.15784260E+01      4.26253850E+01      3.99193930E+01
         221           1      3.97689440E+01      4.35270390E+01      4.05214550E+01
         222           2      3.98575440E+01      4.42626850E+01      3.97149680E+01
         223           2      3.90665150E+01      4.26487920E+01      4.02306200E+01
         224           2      3.92266040E+01      4.38573700E+01      4.14267890E+01
