ITEM: TIMESTEP
           0
ITEM: NUMBER OF ATOMS
          18
ITEM: BOX BOUNDS pp pp pp
      0.00000000E+00      1.53262060E+01
      0.00000000E+00      1.53262060E+01
      0.00000000E+00      1.53262060E+01
ITEM: ATOMS id type xu yu zu
         266           1      3.67714160E+01      3.43538570E+01      3.59216590E+01
         267           2      3.77345470E+01      3.47116210E+01      3.54415560E+01
         269           1      3.56624970E+01      3.48734520E+01      3.53390360E+01
         270           2      3.46376110E+01      3.48155280E+01      3.58829490E+01
         271           2      3.68347710E+01      3.38065570E+01      3.68471600E+01
         272           1      3.57283160E+01      3.57650450E+01      3.41694840E+01
         273           2      3.67360530E+01      3.59511860E+01      3.38123970E+01
         274           2      3.52366050E+01      3.67906720E+01      3.43320460E+01
         275           1      3.48533030E+01      3.51677340E+01      3.29987830E+01
         276           2      3.39981230E+01      3.44995960E+01      3.33896120E+01
         277           2      3.53673030E+01      3.44152780E+01      3.24396150E+01
         278           1      3.41756010E+01      3.62596990E+01      3.21248870E+01
         279           2      3.50285470E+01      3.67001200E+01      3.15845430E+01
         280           2      3.35358640E+01      3.70325560E+01      3.25963930E+01
         285           1      3.31751370E+01      3.55137910E+01      3.10505260E+01
         286           2      3.23372300E+01      3.62118370E+01      3.08068660E+01
         287           2      3.37294140E+01      3.50331730E+01      3.02168870E+01
         288           2      3.26285920E+01      3.47076660E+01      3.15667130E+01
