ITEM: TIMESTEP
           0
ITEM: NUMBER OF ATOMS
          53
ITEM: BOX BOUNDS pp pp pp
      0.00000000E+00      1.53262060E+01
      0.00000000E+00      1.53262060E+01
      0.00000000E+00      1.53262060E+01
ITEM: ATOMS id type xu yu zu
         129           1      3.31577840E+01      4.43398680E+01      3.22567940E+01
         130           2      3.38975360E+01      4.44293590E+01      3.14261880E+01
         131           2      3.21180920E+01      4.46680100E+01      3.18671440E+01
         132           1      3.30552080E+01      4.28935390E+01      3.28249550E+01
         133           2      3.25532280E+01      4.21852310E+01      3.22744800E+01
         134           2      3.24302240E+01      4.29856330E+01      3.38108360E+01
         135           1      3.44716750E+01      4.21747890E+01      3.31419360E+01
         136           2      3.52320310E+01      4.29844780E+01      3.33971590E+01
         137           2      3.51028380E+01      4.17970210E+01      3.22351060E+01
         138           1      3.42864150E+01      4.09356510E+01      3.39924920E+01
         139           2      3.34478250E+01      4.04634380E+01      3.34055910E+01
         140           2      3.39136240E+01      4.12828350E+01      3.49376880E+01
         141           1      3.54127770E+01      3.98955680E+01      3.42808570E+01
         142           2      3.61550210E+01      4.03680860E+01      3.49177890E+01
         143           2      3.60723910E+01      3.95379650E+01      3.34507560E+01
         144           1      3.47736960E+01      3.87491630E+01      3.49695340E+01
         146           2      3.49256620E+01      3.86521560E+01      3.60340640E+01
         153           1      3.33842540E+01      4.53168360E+01      3.34538920E+01
         154           2      3.44163470E+01      3.03188570E+01      3.35047500E+01
         155           2      3.27836740E+01      4.62859610E+01      3.34116600E+01
         156           2      3.32927360E+01      4.47224420E+01      3.44287220E+01
         321           1      3.80786140E+01      3.75505180E+01      1.91703950E+01
         322           2      3.84239480E+01      3.71555850E+01      1.81355980E+01
         323           2      3.77925550E+01      3.86980930E+01      1.92768390E+01
         324           1      3.67419640E+01      3.70170220E+01      3.51543320E+01
         325           2      3.67988070E+01      3.75493980E+01      3.61384750E+01
         326           2      3.69473840E+01      3.59600310E+01      3.54875570E+01
         327           1      3.53068570E+01      3.73269710E+01      3.44981870E+01
         328           2      3.54035160E+01      3.72734170E+01      3.33345370E+01
         329           2      3.36665630E+01      3.87386570E+01      3.47822090E+01
         330           1      3.42563430E+01      3.63233000E+01      3.50144770E+01
         331           2      3.32044380E+01      3.68215230E+01      3.48652460E+01
         332           2      3.44260750E+01      3.61206240E+01      3.61120010E+01
         333           1      3.42661600E+01      3.49378690E+01      3.42810110E+01
         334           2      3.52200810E+01      3.45165380E+01      3.42825740E+01
         335           2      3.40638800E+01      3.52834450E+01      3.32461530E+01
         336           1      3.31247030E+01      3.41144690E+01      3.48314730E+01
         337           2      3.24089390E+01      3.38407610E+01      3.40929970E+01
         338           2      3.25376440E+01      3.47966630E+01      3.55164780E+01
         339           1      3.35778570E+01      3.29439860E+01      3.56296280E+01
         340           2      3.41296410E+01      3.31484860E+01      3.66421200E+01
         341           2      3.41216600E+01      3.21622520E+01      3.50837280E+01
         342           1      3.22867640E+01      3.22577430E+01      3.61798430E+01
         343           2      3.24249210E+01      3.12340580E+01      3.67308220E+01
         344           2      3.15784200E+01      3.20286010E+01      3.53344180E+01
         345           1      3.92818040E+01      3.72120270E+01      2.00877040E+01
         346           2      3.97551000E+01      3.61644670E+01      1.98537940E+01
         347           2      4.02640750E+01      3.77804040E+01      2.00414890E+01
         348           2      3.90958130E+01      3.72007690E+01      2.12031400E+01
         349           1      3.15078420E+01      3.32260390E+01      3.71845350E+01
         350           2      3.06436940E+01      3.25911430E+01      3.76957100E+01
         351           2      3.23962050E+01      3.35500340E+01      3.79443150E+01
         352           2      3.07915960E+01      3.39020010E+01      3.66655420E+01
