ITEM: TIMESTEP
           0
ITEM: NUMBER OF ATOMS
          31
ITEM: BOX BOUNDS pp pp pp
      0.00000000E+00      1.53262060E+01
      0.00000000E+00      1.53262060E+01
      0.00000000E+00      1.53262060E+01
ITEM: ATOMS id type xu yu zu
         193           1      3.24156480E+01      2.68775010E+01      4.34842600E+01
         194           2      3.18775160E+01      2.60328260E+01      4.39198820E+01
         196           1      3.39103560E+01      2.69405640E+01      4.36426120E+01
         197           2      3.42401060E+01      2.77380460E+01      4.43396100E+01
         198           2      3.44033990E+01      4.25268540E+01      4.26032960E+01
         199           1      3.43615100E+01      2.54690740E+01      4.41253680E+01
         200           2      3.37021170E+01      2.47218510E+01      4.37451370E+01
         201           2      3.43011960E+01      2.53732600E+01      4.52499930E+01
         202           1      3.57934840E+01      2.51759600E+01      4.37691610E+01
         203           2      3.60520250E+01      2.41111720E+01      4.39438320E+01
         204           2      3.65022470E+01      2.56442010E+01      4.43718310E+01
         205           1      3.60670660E+01      2.52656850E+01      4.21702110E+01
         206           2      3.53009190E+01      2.58189950E+01      4.16326100E+01
         207           2      3.58993160E+01      2.43500790E+01      4.17340900E+01
         208           1      3.75190210E+01      2.57970380E+01      4.18309850E+01
         209           2      3.80585750E+01      2.52366450E+01      4.26027760E+01
         210           2      3.74922270E+01      2.69128390E+01      4.20989280E+01
         211           1      3.81179870E+01      4.07054750E+01      4.03859830E+01
         212           2      3.80433630E+01      4.15226150E+01      3.95700350E+01
         213           2      3.75766820E+01      3.98417490E+01      4.00172680E+01
         214           1      3.95978960E+01      4.02645530E+01      4.04867950E+01
         215           2      3.96806980E+01      3.92259670E+01      4.03592950E+01
         216           2      4.00426830E+01      4.05287750E+01      4.14642990E+01
         217           1      3.16407940E+01      2.81934140E+01      4.35054560E+01
         218           2      3.08453180E+01      2.82606360E+01      2.74374440E+01
         219           2      3.11325720E+01      2.84348320E+01      2.91173380E+01
         220           2      3.24288150E+01      2.89067740E+01      4.31340280E+01
         221           1      4.04247810E+01      4.09623410E+01      3.93685200E+01
         222           2      4.06942630E+01      4.20336520E+01      3.96532750E+01
         223           2      4.13782090E+01      4.04194720E+01      3.94093440E+01
         224           2      4.00024370E+01      4.10241960E+01      3.83756550E+01
