ITEM: TIMESTEP
           0
ITEM: NUMBER OF ATOMS
          23
ITEM: BOX BOUNDS pp pp pp
      0.00000000E+00      1.53262060E+01
      0.00000000E+00      1.53262060E+01
      0.00000000E+00      1.53262060E+01
ITEM: ATOMS id type xu yu zu
         162           2      3.90009840E+01      2.58646060E+01      2.94514100E+01
         167           1      3.85937630E+01      2.68595550E+01      2.97937010E+01
         168           2      3.80582350E+01      2.65174810E+01      3.06989700E+01
         169           2      3.95095770E+01      2.74957200E+01      3.01619390E+01
         170           1      3.75711010E+01      2.75422190E+01      2.88343000E+01
         171           2      3.70054720E+01      2.68026260E+01      2.83054270E+01
         172           2      3.80837710E+01      2.81320530E+01      2.80637830E+01
         173           1      3.65291530E+01      4.38208410E+01      2.94918440E+01
         174           2      3.57376160E+01      4.32563140E+01      3.00055030E+01
         175           2      3.61374500E+01      2.89751040E+01      2.85432010E+01
         176           1      3.71740190E+01      4.49074210E+01      3.04043000E+01
         177           2      3.65425030E+01      4.57556610E+01      3.03930010E+01
         178           2      3.80318260E+01      4.54114270E+01      2.97912920E+01
         179           1      3.77137620E+01      4.45380710E+01      3.17962890E+01
         180           2      3.86689130E+01      4.40630920E+01      3.19102170E+01
         181           2      3.70997990E+01      4.39310640E+01      3.22887630E+01
         182           1      3.78138300E+01      4.58809720E+01      3.24514390E+01
         183           2      3.78173050E+01      4.58675250E+01      3.34578780E+01
         184           2      3.69208780E+01      4.64730600E+01      3.21504760E+01
         189           1      3.88524980E+01      4.68621110E+01      3.22397710E+01
         190           2      3.90454950E+01      4.72343640E+01      3.13081340E+01
         191           2      3.85300890E+01      4.77326800E+01      3.29042660E+01
         192           2      3.97256720E+01      4.65761890E+01      3.28372990E+01
