ITEM: TIMESTEP
           0
ITEM: NUMBER OF ATOMS
          31
ITEM: BOX BOUNDS pp pp pp
      0.00000000E+00      1.53262060E+01
      0.00000000E+00      1.53262060E+01
      0.00000000E+00      1.53262060E+01
ITEM: ATOMS id type xu yu zu
         257           1      3.83205480E+01      3.50056890E+01      4.64226600E+01
         258           2      3.86562330E+01      3.41803650E+01      4.57607770E+01
         259           2      3.92362930E+01      3.53492650E+01      4.68767960E+01
         260           1      3.77415100E+01      3.61618750E+01      4.55847830E+01
         261           2      3.76455120E+01      3.69626860E+01      4.63232150E+01
         262           2      3.67864400E+01      3.60227670E+01      4.52171790E+01
         263           1      3.87476410E+01      3.66026140E+01      4.44666640E+01
         264           2      3.97866120E+01      3.66034730E+01      4.50032940E+01
         265           2      3.84615010E+01      3.75934890E+01      4.41844040E+01
         266           1      3.85892010E+01      3.57313270E+01      4.31242570E+01
         267           2      3.75101350E+01      3.54788130E+01      4.29644560E+01
         268           2      3.92059230E+01      3.47957510E+01      4.33144610E+01
         269           1      3.92164430E+01      3.64122110E+01      4.18839480E+01
         270           2      3.99782140E+01      3.57679990E+01      4.13901500E+01
         271           2      3.97342270E+01      3.73238970E+01      4.21773260E+01
         272           1      3.81248780E+01      3.69808090E+01      4.09384000E+01
         273           2      3.78506960E+01      3.80177150E+01      4.13335330E+01
         274           2      3.72088400E+01      3.63293740E+01      4.10186780E+01
         275           1      3.86055410E+01      3.70646970E+01      3.94742930E+01
         276           2      3.77114510E+01      3.71822820E+01      3.87436680E+01
         277           2      3.89539090E+01      3.60705960E+01      3.91684430E+01
         278           1      3.97725520E+01      3.79631980E+01      3.92537460E+01
         279           2      4.01331030E+01      3.82045120E+01      3.81657680E+01
         280           2      4.06858610E+01      3.72514810E+01      3.95880880E+01
         281           1      3.72573690E+01      3.47206830E+01      4.74383310E+01
         282           2      3.62578360E+01      3.48178080E+01      4.71205350E+01
         283           2      3.74457610E+01      3.36066720E+01      4.78282270E+01
         284           2      3.72119610E+01      3.52464150E+01      4.83752830E+01
         285           1      3.98887350E+01      3.91561110E+01      4.00888380E+01
         287           2      3.94104640E+01      3.93915030E+01      4.10302610E+01
         288           2      4.06647470E+01      4.00371010E+01      3.98713050E+01
