ITEM: TIMESTEP
           0
ITEM: NUMBER OF ATOMS
          26
ITEM: BOX BOUNDS pp pp pp
      0.00000000E+00      1.53262060E+01
      0.00000000E+00      1.53262060E+01
      0.00000000E+00      1.53262060E+01
ITEM: ATOMS id type xu yu zu
          97           1      3.14192150E+01      3.85510540E+01      4.05565810E+01
          98           2      3.23507620E+01      3.84081750E+01      4.11560780E+01
          99           2      3.11048840E+01      3.75714740E+01      4.03894290E+01
         100           1      3.02924700E+01      3.91408740E+01      4.14141890E+01
         101           2      3.07238030E+01      4.01464360E+01      4.17317500E+01
         102           2      3.01381410E+01      3.85883300E+01      4.23505250E+01
         103           1      2.89651310E+01      3.91062870E+01      4.06813770E+01
         104           2      2.86960590E+01      3.80192930E+01      4.06741140E+01
         105           2      2.90476580E+01      3.92215640E+01      3.95837590E+01
         106           1      2.78290220E+01      4.00961770E+01      2.56980080E+01
         107           2      2.69436130E+01      3.99736960E+01      2.49943080E+01
         108           2      2.81732840E+01      4.10498940E+01      2.52825420E+01
         109           1      2.75485430E+01      4.02871600E+01      2.71882470E+01
         110           2      2.81611320E+01      4.13228230E+01      2.75564550E+01
         111           2      2.78342370E+01      3.93873080E+01      2.78425140E+01
         112           1      2.61654720E+01      4.08607660E+01      2.74801960E+01
         113           2      2.61240450E+01      4.18918090E+01      2.68954450E+01
         114           2      2.61153010E+01      4.10410380E+01      2.85953800E+01
         115           1      2.49663410E+01      4.00748560E+01      2.70506330E+01
         116           2      2.47771550E+01      3.91944370E+01      2.77736640E+01
         117           2      2.41427980E+01      4.06689720E+01      2.76324220E+01
         121           1      3.21035230E+01      3.90339470E+01      3.91891560E+01
         122           2      3.15887230E+01      3.85926030E+01      3.83349260E+01
         123           2      3.19539170E+01      4.01402140E+01      3.91196280E+01
         124           2      3.31646610E+01      3.88246990E+01      3.91997810E+01
         162           2      4.02827410E+01      2.46405140E+01      2.59022730E+01
