ITEM: TIMESTEP
           0
ITEM: NUMBER OF ATOMS
          12
ITEM: BOX BOUNDS pp pp pp
      0.00000000E+00      1.53262060E+01
      0.00000000E+00      1.53262060E+01
      0.00000000E+00      1.53262060E+01
ITEM: ATOMS id type xu yu zu
         208           1      4.22707890E+01      2.18803740E+01      4.08719520E+01
         209           2      4.21472190E+01      2.17495310E+01      3.97993060E+01
         210           2      4.34053310E+01      2.15947500E+01      4.10416120E+01
         211           1      4.09732940E+01      3.65247780E+01      4.14486070E+01
         212           2      4.08691890E+01      3.58044260E+01      4.23181950E+01
         213           2      4.21897110E+01      3.83322340E+01      4.11692340E+01
         214           1      3.98873410E+01      3.70720560E+01      4.09971680E+01
         215           2      3.90088210E+01      3.66763050E+01      4.15593000E+01
         221           1      3.95323410E+01      3.78899430E+01      3.97149440E+01
         222           2      3.90300660E+01      3.86862870E+01      4.01454220E+01
         223           2      4.04862480E+01      3.81115740E+01      3.93690020E+01
         224           2      3.89123620E+01      3.75497980E+01      3.89184690E+01
