ITEM: TIMESTEP
           0
ITEM: NUMBER OF ATOMS
          29
ITEM: BOX BOUNDS pp pp pp
      0.00000000E+00      1.53262060E+01
      0.00000000E+00      1.53262060E+01
      0.00000000E+00      1.53262060E+01
ITEM: ATOMS id type xu yu zu
          33           1      2.60803500E+01      3.36436630E+01      3.05899900E+01
          34           2      2.66417290E+01      3.31348190E+01      3.14104780E+01
          35           2      2.62093950E+01      3.47340780E+01      3.07303940E+01
          36           1      2.64841330E+01      3.31098430E+01      2.93204380E+01
          37           2      2.76361720E+01      3.32820280E+01      2.91553610E+01
          38           2      2.59628480E+01      3.37335150E+01      2.85871060E+01
          39           1      2.61164190E+01      3.15801550E+01      2.90416970E+01
          40           2      2.50532660E+01      3.14843520E+01      2.88087970E+01
          41           2      2.64708670E+01      3.11683000E+01      3.00801690E+01
          42           1      2.68214670E+01      3.09963720E+01      2.79340620E+01
          43           2      4.32673760E+01      3.11026790E+01      2.82300080E+01
          44           2      2.67656530E+01      3.14803720E+01      2.68927190E+01
          45           1      2.63589240E+01      2.95428550E+01      2.77406510E+01
          46           2      2.52893720E+01      2.95196370E+01      2.75126580E+01
          47           2      4.17974720E+01      2.90467880E+01      2.87468280E+01
          48           1      4.26686140E+01      2.86295310E+01      2.69518680E+01
          49           2      4.36225720E+01      2.85076680E+01      2.75051570E+01
          50           2      4.27890610E+01      2.90144820E+01      2.58997400E+01
          51           1      2.69483940E+01      2.72060190E+01      2.66901460E+01
          52           2      2.76832090E+01      2.68969780E+01      2.59159200E+01
          53           2      2.58971850E+01      2.70127120E+01      2.62636740E+01
          54           1      4.24158330E+01      2.62230530E+01      4.31614960E+01
          55           2      4.33758960E+01      2.63661990E+01      4.36179920E+01
          56           2      4.16166720E+01      2.63836390E+01      4.39366840E+01
          57           1      2.45963890E+01      3.35904840E+01      3.11887590E+01
          58           2      2.44673710E+01      3.41208580E+01      3.22502270E+01
          59           2      2.38848920E+01      3.39480150E+01      3.04264730E+01
          60           2      2.42833810E+01      3.25732800E+01      3.12781300E+01
         252           2      4.22350660E+01      2.50701300E+01      4.28547110E+01
