ITEM: TIMESTEP
           0
ITEM: NUMBER OF ATOMS
          44
ITEM: BOX BOUNDS pp pp pp
      0.00000000E+00      1.53262060E+01
      0.00000000E+00      1.53262060E+01
      0.00000000E+00      1.53262060E+01
ITEM: ATOMS id type xu yu zu
           1           1      4.10985790E+01      3.46059860E+01      3.82160850E+01
           2           2      4.06669270E+01      3.54539400E+01      3.76015780E+01
           3           2      4.05717950E+01      3.37671690E+01      3.78514880E+01
           4           1      4.25676810E+01      4.95030780E+01      3.81924570E+01
           5           2      4.28952450E+01      4.87137390E+01      3.88782350E+01
           6           2      2.78130860E+01      5.04120160E+01      3.86072220E+01
           7           1      4.32472880E+01      4.91625500E+01      3.67744650E+01
           8           2      2.89966300E+01      4.93213830E+01      3.67814350E+01
           9           2      4.26890240E+01      4.98105970E+01      3.60827420E+01
          10           1      2.75921090E+01      4.77507640E+01      3.62831310E+01
          11           2      2.64838730E+01      4.76037970E+01      3.61187990E+01
          12           2      2.79746800E+01      4.69848930E+01      3.69939710E+01
          13           1      4.35708260E+01      4.74918690E+01      3.49685440E+01
          14           2      4.46313050E+01      4.77970670E+01      3.50757970E+01
          15           2      4.32990770E+01      4.84227660E+01      3.42944580E+01
          16           1      2.80847010E+01      4.62453200E+01      3.41353870E+01
          17           2      2.81783570E+01      4.63462920E+01      3.30286460E+01
          18           2      2.69868970E+01      4.59551540E+01      3.41951110E+01
          19           1      4.41878330E+01      4.49574120E+01      3.43520760E+01
          20           2      4.40970850E+01      4.42965460E+01      3.34494180E+01
          22           1      4.56909150E+01      4.51785000E+01      3.46423830E+01
          23           2      3.09017900E+01      4.42165920E+01      3.49622470E+01
          24           2      3.05903340E+01      4.57865510E+01      3.55600400E+01
          25           1      4.06768280E+01      3.49199660E+01      3.96388170E+01
          26           2      4.09276820E+01      3.39959820E+01      4.01784450E+01
          27           2      4.10722220E+01      3.57404590E+01      4.02367790E+01
          28           2      3.95896750E+01      3.49702080E+01      3.96272380E+01
          29           1      4.63415580E+01      4.58278890E+01      3.33714700E+01
          30           2      4.74128900E+01      4.59088090E+01      3.34607000E+01
          31           2      4.61250260E+01      4.54184480E+01      3.24244290E+01
          32           2      4.58125950E+01      4.67686890E+01      3.32252440E+01
         176           1      4.35972700E+01      4.42099900E+01      3.55727930E+01
         177           2      4.37507500E+01      4.48942540E+01      3.63946670E+01
         178           2      4.43905960E+01      4.34053870E+01      3.58107070E+01
         179           1      4.23104510E+01      4.35902310E+01      3.56573890E+01
         180           2      4.21974250E+01      4.28520950E+01      3.46568180E+01
         181           2      4.14888240E+01      4.42786690E+01      3.54920590E+01
         182           1      4.19723390E+01      4.28292670E+01      3.70466550E+01
         183           2      4.27078380E+01      4.31147190E+01      3.78808940E+01
         184           2      4.20364170E+01      4.16904990E+01      3.70023170E+01
         189           1      4.06239090E+01      4.30416710E+01      3.77199330E+01
         190           2      4.06509590E+01      4.38305730E+01      3.84044720E+01
         191           2      3.98646560E+01      4.32666590E+01      3.69622740E+01
         192           2      4.00908060E+01      4.22506450E+01      3.82688120E+01
