ITEM: TIMESTEP
           0
ITEM: NUMBER OF ATOMS
          17
ITEM: BOX BOUNDS pp pp pp
      0.00000000E+00      1.53262060E+01
      0.00000000E+00      1.53262060E+01
      0.00000000E+00      1.53262060E+01
ITEM: ATOMS id type xu yu zu
          43           2      4.07438010E+01      2.79338170E+01      3.58592910E+01
         225           1      2.75241840E+01      4.01835400E+01      3.86275740E+01
         226           2      2.77515520E+01      3.93195960E+01      3.79358660E+01
         227           2      2.83894970E+01      4.05622490E+01      3.91963430E+01
         228           1      2.73655000E+01      2.61063750E+01      3.75306370E+01
         229           2      2.83099870E+01      2.62338200E+01      3.69000500E+01
         230           2      2.72233650E+01      2.70291000E+01      3.79951910E+01
         231           1      2.63090100E+01      4.11615090E+01      3.64417980E+01
         232           2      2.52763970E+01      4.08949320E+01      3.67933790E+01
         233           2      2.66985840E+01      4.02532400E+01      3.57644400E+01
         234           1      2.61109900E+01      4.24640750E+01      3.54765240E+01
         235           2      2.70518320E+01      4.30901840E+01      3.51905960E+01
         236           2      2.56766970E+01      4.21412280E+01      3.45636530E+01
         249           1      2.62468490E+01      2.44861820E+01      3.94642630E+01
         250           2      2.54423490E+01      2.43945440E+01      3.87085380E+01
         251           2      2.64053500E+01      2.36276890E+01      4.00974980E+01
         252           2      2.59055830E+01      2.53216010E+01      4.02231550E+01
