ITEM: TIMESTEP
           0
ITEM: NUMBER OF ATOMS
          50
ITEM: BOX BOUNDS pp pp pp
      0.00000000E+00      1.53262060E+01
      0.00000000E+00      1.53262060E+01
      0.00000000E+00      1.53262060E+01
ITEM: ATOMS id type xu yu zu
           1           1      3.93795790E+01      3.59876640E+01      3.67687680E+01
           2           2      3.91684070E+01      3.67175110E+01      3.60168930E+01
           3           2      3.84597610E+01      3.58936590E+01      3.73705380E+01
           4           1      3.95009100E+01      5.00173450E+01      3.59480820E+01
           5           2      3.92482670E+01      4.91562760E+01      3.66033150E+01
           6           2      2.51260430E+01      4.98661320E+01      3.54293990E+01
           7           1      3.82944390E+01      4.99958100E+01      3.49466790E+01
           8           2      2.31400390E+01      5.08396410E+01      3.43223450E+01
           9           2      3.73274600E+01      5.02812420E+01      3.55414140E+01
          10           1      2.27070300E+01      4.87141990E+01      3.42351950E+01
          11           2      2.17170870E+01      4.85357860E+01      3.37100740E+01
          12           2      2.28000670E+01      4.79720580E+01      3.50569760E+01
          13           1      3.91229490E+01      4.83059270E+01      3.32125750E+01
          14           2      4.00560880E+01      4.89167840E+01      3.32897360E+01
          15           2      3.87774340E+01      4.83550360E+01      3.21439550E+01
          16           1      2.43022800E+01      4.69112010E+01      3.35398340E+01
          17           2      2.47723020E+01      4.68645070E+01      3.45055160E+01
          18           2      2.52556120E+01      4.68692670E+01      3.29058140E+01
          19           1      3.87613880E+01      4.57227940E+01      3.34183870E+01
          20           2      3.85353320E+01      4.54935250E+01      3.24518510E+01
          21           2      3.77025260E+01      4.59316160E+01      3.39036580E+01
          22           1      3.92048080E+01      4.44249700E+01      3.41949080E+01
          23           2      2.44030570E+01      4.45264310E+01      3.51984400E+01
          24           2      2.47704050E+01      4.39463260E+01      3.37466140E+01
          25           1      4.07015690E+01      3.62844470E+01      3.74353590E+01
          26           2      3.99591470E+01      3.79818830E+01      3.82986280E+01
          27           2      4.11734950E+01      3.52589660E+01      3.78601280E+01
          28           2      4.14582380E+01      3.68251740E+01      3.67955690E+01
          29           1      3.80527390E+01      4.34157550E+01      3.43552440E+01
          30           2      3.85097070E+01      4.25814960E+01      3.50082100E+01
          31           2      3.72330440E+01      4.37815430E+01      3.49622260E+01
          32           2      3.74723340E+01      4.31080760E+01      3.34966790E+01
         321           1      4.11340600E+01      3.44152300E+01      2.75962690E+01
         322           2      4.15672300E+01      3.37285440E+01      2.67958600E+01
         323           2      4.20318990E+01      3.49386880E+01      2.80296930E+01
         324           1      4.02786790E+01      3.53409320E+01      4.20117230E+01
         325           2      3.99305110E+01      3.63143890E+01      4.26798680E+01
         326           2      3.93410380E+01      3.47028620E+01      4.18786030E+01
         327           1      4.08600300E+01      3.56671780E+01      4.06998900E+01
         328           2      4.08821200E+01      3.48207700E+01      4.01492570E+01
         329           2      4.18881900E+01      3.60861260E+01      4.09079300E+01
         330           1      4.00449660E+01      3.66024560E+01      3.98396260E+01
         331           2      3.89292420E+01      3.62904400E+01      3.97743750E+01
         332           2      3.97415210E+01      3.76143360E+01      4.03421760E+01
         333           1      4.06834140E+01      3.72277950E+01      3.86348090E+01
         335           2      4.15887230E+01      3.77451070E+01      3.89602620E+01
         345           1      4.03574210E+01      3.36350770E+01      2.86219200E+01
         346           2      3.95014430E+01      3.42194310E+01      2.90309060E+01
         347           2      3.99013960E+01      3.27456470E+01      2.81142060E+01
         348           2      4.09331080E+01      3.32036850E+01      2.94425050E+01
