ITEM: TIMESTEP
           0
ITEM: NUMBER OF ATOMS
          24
ITEM: BOX BOUNDS pp pp pp
      0.00000000E+00      1.53262060E+01
      0.00000000E+00      1.53262060E+01
      0.00000000E+00      1.53262060E+01
ITEM: ATOMS id type xu yu zu
         164           1      5.03384880E+01      2.40417000E+01      3.62228650E+01
         166           2      5.10935040E+01      2.43441600E+01      3.70115430E+01
         167           1      5.04083110E+01      2.40060830E+01      3.48846000E+01
         168           2      4.95854620E+01      2.34677080E+01      3.43764660E+01
         169           2      4.95611110E+01      2.34375110E+01      3.67920860E+01
         170           1      5.16089140E+01      2.47006490E+01      3.41173490E+01
         171           2      5.24623920E+01      2.50085690E+01      3.47387670E+01
         172           2      5.14559890E+01      2.57173970E+01      3.37772950E+01
         173           1      5.20667610E+01      3.92625980E+01      3.28191370E+01
         174           2      5.27077620E+01      3.98213240E+01      3.21887350E+01
         175           2      5.13204610E+01      2.38654350E+01      3.20353070E+01
         176           1      5.25827320E+01      3.79108950E+01      3.31935210E+01
         177           2      5.28145550E+01      3.72493200E+01      3.22858550E+01
         178           2      5.18854720E+01      3.74397490E+01      3.39178540E+01
         179           1      5.39186470E+01      3.78708110E+01      3.40906930E+01
         180           2      5.44600460E+01      3.88956330E+01      3.44081800E+01
         181           2      5.48420510E+01      3.73010870E+01      3.37939000E+01
         182           1      5.36790050E+01      3.72235930E+01      3.53987190E+01
         183           2      5.29787780E+01      3.77402700E+01      3.58690770E+01
         184           2      5.46587870E+01      3.70499030E+01      3.59124290E+01
         189           1      5.30696830E+01      3.57271320E+01      3.53282970E+01
         190           2      5.34026590E+01      3.52083330E+01      3.62750180E+01
         191           2      5.19383940E+01      3.57540540E+01      3.56295620E+01
         192           2      5.32120840E+01      3.50650270E+01      3.45037760E+01
