ITEM: TIMESTEP
           0
ITEM: NUMBER OF ATOMS
           6
ITEM: BOX BOUNDS pp pp pp
      0.00000000E+00      1.53262060E+01
      0.00000000E+00      1.53262060E+01
      0.00000000E+00      1.53262060E+01
ITEM: ATOMS id type xu yu zu
         141           1      4.08281060E+01      3.93400310E+01      3.22885290E+01
         142           2      4.11377480E+01      4.04163130E+01      3.21451870E+01
         143           2      4.05762620E+01      3.92994890E+01      3.35154780E+01
         144           1      4.09434390E+01      3.83929990E+01      3.13170120E+01
         145           2      4.11322200E+01      3.86375840E+01      3.02257940E+01
         146           2      4.08855820E+01      3.72654140E+01      3.16071710E+01
