ITEM: TIMESTEP
           0
ITEM: NUMBER OF ATOMS
          24
ITEM: BOX BOUNDS pp pp pp
      0.00000000E+00      1.53262060E+01
      0.00000000E+00      1.53262060E+01
      0.00000000E+00      1.53262060E+01
ITEM: ATOMS id type xu yu zu
           1           1      3.62746660E+01      3.33643560E+01      3.57160610E+01
           3           2      3.58994180E+01      3.24022880E+01      3.52096220E+01
           4           1      3.54454380E+01      4.97226510E+01      3.59075500E+01
           5           2      3.57593490E+01      5.06133460E+01      3.63893120E+01
           6           2      1.45027630E+01      4.87761840E+01      3.91049690E+01
           7           1      3.39551080E+01      4.97627990E+01      3.54017950E+01
           8           2      1.85417540E+01      4.92308560E+01      3.44839240E+01
           9           2      3.37183390E+01      5.07873470E+01      3.52564760E+01
          10           1      1.77709550E+01      4.91216330E+01      3.65550210E+01
          11           2      1.76221960E+01      4.99457570E+01      3.72307960E+01
          12           2      1.82910160E+01      4.81939040E+01      3.71680210E+01
          13           1      3.16991200E+01      4.85530740E+01      3.60686150E+01
          14           2      3.20275820E+01      4.78501010E+01      3.52708230E+01
          15           2      3.12183450E+01      4.92979200E+01      3.54236500E+01
          16           1      1.53235030E+01      4.81485960E+01      3.71848590E+01
          17           2      1.56968720E+01      4.72616410E+01      3.75859510E+01
          18           2      1.43021850E+01      4.79605050E+01      3.68544800E+01
          19           1      3.05019560E+01      4.91401420E+01      3.82712760E+01
          20           2      3.14420280E+01      4.94344970E+01      3.87990320E+01
          21           2      3.02230960E+01      5.00616510E+01      3.77494140E+01
          25           1      3.75823320E+01      3.32812420E+01      3.63920010E+01
          26           2      3.81457120E+01      3.22960280E+01      3.61423250E+01
          27           2      3.83354750E+01      3.40207600E+01      3.61113910E+01
          28           2      3.75251290E+01      3.34043280E+01      3.75049890E+01
