ITEM: TIMESTEP
           0
ITEM: NUMBER OF ATOMS
          27
ITEM: BOX BOUNDS pp pp pp
      0.00000000E+00      1.53262060E+01
      0.00000000E+00      1.53262060E+01
      0.00000000E+00      1.53262060E+01
ITEM: ATOMS id type xu yu zu
         225           1      3.34717850E+01      4.42630470E+01      2.93562380E+01
         226           2      3.40841740E+01      4.50556690E+01      2.98989290E+01
         227           2      3.39222110E+01      4.41300380E+01      2.83602500E+01
         228           1      3.38814640E+01      2.75479730E+01      3.01084440E+01
         229           2      3.48266360E+01      2.73232800E+01      2.95936310E+01
         230           2      3.32929710E+01      2.66793910E+01      2.99265590E+01
         231           1      3.40135930E+01      4.30904290E+01      3.16244680E+01
         232           2      3.42539040E+01      4.20152120E+01      3.20785840E+01
         233           2      3.29560400E+01      4.31498610E+01      3.20386080E+01
         234           1      3.48410830E+01      4.42188490E+01      3.23071110E+01
         235           2      3.42760320E+01      4.52652940E+01      3.21558290E+01
         236           2      3.57233590E+01      4.42966630E+01      3.17366800E+01
         237           1      3.50577320E+01      4.40252340E+01      3.39050460E+01
         238           2      3.56443740E+01      4.30331710E+01      3.39124050E+01
         239           2      3.39792470E+01      2.83438120E+01      3.42358410E+01
         240           1      3.57314200E+01      4.53030090E+01      3.45768960E+01
         241           2      3.57138350E+01      3.09800940E+01      3.40877080E+01
         242           2      3.68423900E+01      2.98376850E+01      3.45284360E+01
         243           1      3.52957410E+01      4.51393280E+01      3.59758710E+01
         245           2      3.51656250E+01      4.40682060E+01      3.62899450E+01
         246           1      3.55203240E+01      4.60271270E+01      3.69270080E+01
         247           2      3.54331440E+01      4.57056370E+01      3.79991180E+01
         248           2      3.57934450E+01      4.69462390E+01      3.65766850E+01
         249           1      3.19140730E+01      2.90977100E+01      2.92982190E+01
         250           2      3.15109560E+01      2.92092870E+01      3.03091190E+01
         251           2      3.15888720E+01      3.01241900E+01      2.90033480E+01
         252           2      3.14324940E+01      2.82750590E+01      2.85597050E+01
