ITEM: TIMESTEP
           0
ITEM: NUMBER OF ATOMS
          12
ITEM: BOX BOUNDS pp pp pp
      0.00000000E+00      1.53262060E+01
      0.00000000E+00      1.53262060E+01
      0.00000000E+00      1.53262060E+01
ITEM: ATOMS id type xu yu zu
          48           1      4.46386260E+01      2.82188120E+01      3.44975450E+01
          49           2      4.52640430E+01      2.74048860E+01      3.46792640E+01
          50           2      4.48080500E+01      2.91836570E+01      3.48892360E+01
          51           1      2.83132390E+01      2.80252200E+01      3.35705690E+01
          52           2      2.80863580E+01      2.70187230E+01      3.31235290E+01
          54           1      4.28120080E+01      2.92218480E+01      4.84433460E+01
          55           2      4.31338570E+01      2.96152720E+01      4.74729780E+01
          56           2      4.31988530E+01      2.99962260E+01      4.90715750E+01
          61           1      2.60329760E+01      2.89416890E+01      4.86884860E+01
          62           2      2.54632160E+01      2.97940330E+01      4.82401660E+01
          63           2      2.58377480E+01      2.81699170E+01      4.79477590E+01
          64           2      2.57178290E+01      2.88163830E+01      4.98289110E+01
