ITEM: TIMESTEP
           0
ITEM: NUMBER OF ATOMS
          35
ITEM: BOX BOUNDS pp pp pp
      0.00000000E+00      1.53262060E+01
      0.00000000E+00      1.53262060E+01
      0.00000000E+00      1.53262060E+01
ITEM: ATOMS id type xu yu zu
          42           1      3.39012500E+01      3.33019810E+01      3.69751790E+01
          43           2      4.92263020E+01      3.26289450E+01      3.61031470E+01
          44           2      3.36450010E+01      3.28542420E+01      3.79914850E+01
         321           1      4.04756280E+01      3.84523710E+01      2.62792890E+01
         322           2      3.95534130E+01      3.88053120E+01      2.67738580E+01
         323           2      4.05896170E+01      3.74280050E+01      2.64522820E+01
         324           1      4.06492380E+01      3.87515990E+01      4.00555210E+01
         325           2      4.15095660E+01      3.94950710E+01      3.99759900E+01
         326           2      3.98062930E+01      3.94056600E+01      3.97506340E+01
         327           1      4.07376720E+01      3.74184400E+01      3.92053890E+01
         328           2      4.16061040E+01      3.69222320E+01      3.95333250E+01
         329           2      4.09468370E+01      3.78389720E+01      3.81919210E+01
         330           1      3.93853330E+01      3.65869600E+01      3.93490320E+01
         331           2      3.83599430E+01      3.71216240E+01      3.94772040E+01
         332           2      3.95181370E+01      3.59156420E+01      4.03243180E+01
         333           1      3.93530670E+01      3.56093540E+01      3.81417960E+01
         334           2      4.02808110E+01      3.50343370E+01      3.83083820E+01
         335           2      3.98588360E+01      3.61169730E+01      3.72385390E+01
         336           1      3.80501350E+01      3.49008500E+01      3.77774040E+01
         337           2      3.78778770E+01      3.51850500E+01      3.67015130E+01
         338           2      3.72491880E+01      3.55750410E+01      3.82312150E+01
         339           1      3.77011650E+01      3.35137450E+01      3.81099270E+01
         340           2      3.77165980E+01      3.33461970E+01      3.92256120E+01
         341           2      3.86864330E+01      3.30189380E+01      3.77653390E+01
         342           1      3.64526860E+01      3.30143040E+01      3.74070190E+01
         343           2      3.60980210E+01      3.19791170E+01      3.79336340E+01
         344           2      3.67299100E+01      3.26333630E+01      3.63954410E+01
         345           1      4.16138060E+01      3.91674040E+01      2.70587450E+01
         346           2      4.11384020E+01      3.93657590E+01      2.80589090E+01
         347           2      4.25254880E+01      3.86687440E+01      2.74324090E+01
         348           2      4.18814160E+01      4.00380160E+01      2.64878710E+01
         349           1      3.52732800E+01      3.39916580E+01      3.73226800E+01
         350           2      3.29707740E+01      3.39107670E+01      3.68382570E+01
         351           2      3.51469460E+01      3.46877940E+01      3.82670720E+01
         352           2      3.55263690E+01      3.48208900E+01      3.65392940E+01
