ITEM: TIMESTEP
           0
ITEM: NUMBER OF ATOMS
           9
ITEM: BOX BOUNDS pp pp pp
      0.00000000E+00      1.53262060E+01
      0.00000000E+00      1.53262060E+01
      0.00000000E+00      1.53262060E+01
ITEM: ATOMS id type xu yu zu
         161           1      3.54212290E+01      3.17476610E+01      3.53366150E+01
         163           2      3.51501940E+01      3.15185900E+01      3.63983860E+01
         164           1      3.64301070E+01      3.25780630E+01      3.52587610E+01
         165           2      3.64008560E+01      3.29650830E+01      3.41596540E+01
         166           2      3.69272660E+01      3.29934430E+01      3.61876290E+01
         185           1      3.44047160E+01      3.13096620E+01      3.42853620E+01
         186           2      3.46774810E+01      3.02954040E+01      3.40096450E+01
         187           2      3.33204390E+01      3.12287340E+01      3.44856440E+01
         188           2      3.44220730E+01      3.20026220E+01      4.89078750E+01
