ITEM: TIMESTEP
           0
ITEM: NUMBER OF ATOMS
           8
ITEM: BOX BOUNDS pp pp pp
      0.00000000E+00      1.53262060E+01
      0.00000000E+00      1.53262060E+01
      0.00000000E+00      1.53262060E+01
ITEM: ATOMS id type xu yu zu
         161           1      4.84395310E+01      2.30164280E+01      3.15021160E+01
         162           2      4.84018480E+01      2.35356370E+01      3.25488740E+01
         163           2      4.72603750E+01      2.27891210E+01      3.15257670E+01
         165           2      4.86708030E+01      2.38553870E+01      3.07054550E+01
         185           1      4.94049190E+01      2.17535880E+01      3.12742430E+01
         186           2      4.93838630E+01      2.13308530E+01      3.23949720E+01
         187           2      4.87947560E+01      2.14076580E+01      3.04556230E+01
         188           2      5.04875380E+01      2.18928180E+01      4.65933100E+01
