ITEM: TIMESTEP
           0
ITEM: NUMBER OF ATOMS
          20
ITEM: BOX BOUNDS pp pp pp
      0.00000000E+00      1.53262060E+01
      0.00000000E+00      1.53262060E+01
      0.00000000E+00      1.53262060E+01
ITEM: ATOMS id type xu yu zu
          33           1      2.50531950E+01      3.35881940E+01      3.86785580E+01
          34           2      2.46678720E+01      3.45119810E+01      3.92906880E+01
          35           2      2.57652030E+01      3.29263330E+01      3.93072240E+01
          36           1      2.40670140E+01      3.25057150E+01      3.81897350E+01
          37           2      2.49603780E+01      3.17698150E+01      3.77619310E+01
          38           2      2.34496730E+01      3.27317810E+01      3.72845430E+01
          39           1      2.35491050E+01      3.16083420E+01      3.93665480E+01
          40           2      2.43487390E+01      3.16595530E+01      4.03410620E+01
          41           2      2.34215110E+01      3.05932520E+01      3.91470810E+01
          42           1      2.21909690E+01      3.21100190E+01      3.99509290E+01
          43           2      3.74933900E+01      3.33094110E+01      3.98049790E+01
          44           2      2.21212260E+01      3.18664790E+01      4.10990240E+01
          45           1      2.09513350E+01      3.14957710E+01      3.93478280E+01
          46           2      2.01489920E+01      3.18240750E+01      3.98536320E+01
          47           2      3.63639180E+01      3.18984740E+01      3.83160400E+01
          53           2      2.12090880E+01      3.03625030E+01      3.95078520E+01
          57           1      2.57958420E+01      3.40145050E+01      3.73684380E+01
          58           2      2.51259260E+01      3.42662060E+01      3.65390130E+01
          59           2      2.63245600E+01      3.50917180E+01      3.75076960E+01
          60           2      2.66326500E+01      3.32378740E+01      3.70456100E+01
