ITEM: TIMESTEP
           0
ITEM: NUMBER OF ATOMS
          11
ITEM: BOX BOUNDS pp pp pp
      0.00000000E+00      1.53262060E+01
      0.00000000E+00      1.53262060E+01
      0.00000000E+00      1.53262060E+01
ITEM: ATOMS id type xu yu zu
         257           1      3.47896690E+01      4.13916600E+01      3.27534900E+01
         258           2      3.41633760E+01      4.12300660E+01      3.38180100E+01
         259           2      3.50644150E+01      4.03420930E+01      3.25165190E+01
         260           1      3.38686060E+01      4.19723040E+01      3.17140880E+01
         261           2      3.29669320E+01      4.13343220E+01      3.13627600E+01
         262           2      3.32814980E+01      4.28008760E+01      3.21185640E+01
         268           2      3.42992350E+01      4.23941690E+01      3.07830350E+01
         281           1      3.61039650E+01      4.21146160E+01      3.29815660E+01
         282           2      3.67371550E+01      4.18047410E+01      3.20592340E+01
         283           2      3.60634280E+01      4.32356630E+01      3.30110730E+01
         284           2      3.64909580E+01      4.19487450E+01      3.39458480E+01
