ITEM: TIMESTEP
           0
ITEM: NUMBER OF ATOMS
          35
ITEM: BOX BOUNDS pp pp pp
      0.00000000E+00      1.53262060E+01
      0.00000000E+00      1.53262060E+01
      0.00000000E+00      1.53262060E+01
ITEM: ATOMS id type xu yu zu
          65           1      3.93659610E+01      3.60494640E+01      3.77721070E+01
          66           2      3.99263720E+01      3.66408080E+01      3.86262690E+01
          67           2      3.91463390E+01      3.38302060E+01      3.74070400E+01
          68           1      3.79468210E+01      3.67473920E+01      3.78384750E+01
          69           2      3.72089130E+01      3.62935110E+01      3.85561790E+01
          70           2      3.74787800E+01      3.66923000E+01      3.67484460E+01
          71           1      3.80647250E+01      3.82424450E+01      3.82101540E+01
          72           2      3.88837040E+01      3.82145820E+01      3.90938000E+01
          73           2      3.70690960E+01      3.85343760E+01      3.88871770E+01
          74           1      3.82595120E+01      2.41424660E+01      3.71806700E+01
          75           2      3.92479670E+01      2.42086330E+01      3.66887550E+01
          76           2      3.79893270E+01      2.51116780E+01      3.77765380E+01
          77           1      3.73277300E+01      2.39127150E+01      3.57750570E+01
          78           2      3.64256670E+01      3.86913060E+01      3.58691410E+01
          79           2      3.79505850E+01      3.87508540E+01      3.50065590E+01
          80           1      3.69009360E+01      2.52665820E+01      3.51856460E+01
          81           2      3.76837800E+01      2.59105880E+01      3.54460400E+01
          82           2      3.60565580E+01      2.57070080E+01      3.58178020E+01
          83           1      3.66136350E+01      2.54050650E+01      3.36526090E+01
          84           2      3.58559190E+01      2.46187810E+01      3.32422080E+01
          85           2      3.75220460E+01      2.52983420E+01      3.30907370E+01
          86           1      3.61013110E+01      2.68243950E+01      3.34023890E+01
          87           2      3.58351330E+01      2.73890430E+01      3.42640140E+01
          88           2      3.51744680E+01      2.67986270E+01      3.26567550E+01
          89           1      4.01536770E+01      3.63623460E+01      3.64972100E+01
          90           2      4.05031280E+01      3.74691800E+01      3.63641670E+01
          91           2      4.11364680E+01      3.58656010E+01      3.65265960E+01
          92           2      3.96751420E+01      3.61772710E+01      3.54170740E+01
          93           1      3.69985110E+01      2.78762150E+01      3.26248880E+01
          94           2      3.80148840E+01      2.80843620E+01      3.31397210E+01
          95           2      3.71162120E+01      2.76111130E+01      3.15724680E+01
          96           2      3.64535530E+01      2.87746240E+01      3.26491250E+01
         118           1      2.41819810E+01      3.45150640E+01      3.81309300E+01
         119           2      2.52704430E+01      3.41741610E+01      3.82738920E+01
         120           2      2.36310810E+01      3.44144800E+01      3.91264820E+01
