ITEM: TIMESTEP
           0
ITEM: NUMBER OF ATOMS
          30
ITEM: BOX BOUNDS pp pp pp
      0.00000000E+00      1.53262060E+01
      0.00000000E+00      1.53262060E+01
      0.00000000E+00      1.53262060E+01
ITEM: ATOMS id type xu yu zu
         161           1      4.03470060E+01      2.32133880E+01      3.19026930E+01
         163           2      4.11030340E+01      2.25060970E+01      3.22010040E+01
         164           1      4.01939620E+01      2.41109460E+01      3.29172770E+01
         165           2      3.95049970E+01      2.49883780E+01      3.28804930E+01
         167           1      4.10307060E+01      2.41488430E+01      3.41588260E+01
         168           2      4.07026410E+01      2.34672590E+01      3.49006710E+01
         169           2      4.09221430E+01      2.52417940E+01      3.46804320E+01
         170           1      4.25458300E+01      2.39840090E+01      3.41030310E+01
         171           2      4.29972840E+01      2.48794160E+01      3.35731630E+01
         172           2      4.27764310E+01      2.30532900E+01      3.35056150E+01
         173           1      4.29847920E+01      3.92354400E+01      3.55999450E+01
         174           2      4.26092820E+01      3.82182550E+01      3.60353120E+01
         175           2      4.24641320E+01      2.47566380E+01      3.61165290E+01
         176           1      4.45052370E+01      3.92139390E+01      3.59982390E+01
         177           2      4.49163530E+01      3.86012950E+01      3.51887430E+01
         178           2      4.45821660E+01      3.84908320E+01      3.69431920E+01
         179           1      4.52252410E+01      4.05136820E+01      3.64091260E+01
         180           2      4.50543090E+01      4.07206090E+01      3.74748210E+01
         181           2      4.48159170E+01      4.14081690E+01      3.58683500E+01
         182           1      4.67150200E+01      4.05473030E+01      3.61152510E+01
         183           2      4.68807470E+01      4.04852460E+01      3.50117780E+01
         184           2      4.72330660E+01      3.97003220E+01      3.65349480E+01
         185           1      3.97114520E+01      2.34287180E+01      3.05296610E+01
         186           2      4.03431420E+01      2.41766840E+01      2.99452600E+01
         187           2      3.95015970E+01      2.25167290E+01      2.99202390E+01
         188           2      3.85805880E+01      2.37189140E+01      4.60295480E+01
         189           1      4.73253870E+01      4.18203360E+01      3.65891570E+01
         190           2      4.73958850E+01      4.19668190E+01      3.76833420E+01
         191           2      4.84026590E+01      4.19401420E+01      3.62462940E+01
         192           2      4.68546340E+01      4.28034280E+01      3.62013140E+01
