ITEM: TIMESTEP
           0
ITEM: NUMBER OF ATOMS
          28
ITEM: BOX BOUNDS pp pp pp
      0.00000000E+00      1.53262060E+01
      0.00000000E+00      1.53262060E+01
      0.00000000E+00      1.53262060E+01
ITEM: ATOMS id type xu yu zu
           1           1      4.07388850E+01      2.13026730E+01      3.77937010E+01
           2           2      3.98037860E+01      2.14753020E+01      3.85273630E+01
           3           2      4.05277250E+01      2.08685020E+01      3.67630750E+01
           4           1      4.20583590E+01      3.71624180E+01      3.82289140E+01
           5           2      4.24080880E+01      3.67847710E+01      3.92722170E+01
           6           2      2.67020310E+01      3.82871230E+01      3.82444080E+01
           7           1      4.31829820E+01      3.68626670E+01      3.71676670E+01
           8           2      2.75268680E+01      3.72135150E+01      3.61938380E+01
           9           2      4.32618030E+01      3.57824910E+01      3.71393580E+01
          10           1      2.91664970E+01      3.75287870E+01      3.75673170E+01
          11           2      3.00550430E+01      3.70614640E+01      3.71202120E+01
          12           2      2.93334370E+01      3.73416350E+01      3.86256950E+01
          13           1      4.44540100E+01      3.90218860E+01      3.73498160E+01
          14           2      4.36698960E+01      3.93648520E+01      3.81172170E+01
          15           2      4.41016400E+01      3.92206990E+01      3.62385570E+01
          16           1      3.05236720E+01      3.96819830E+01      3.75845340E+01
          17           2      3.12278790E+01      3.94750910E+01      3.67631880E+01
          18           2      3.10594010E+01      3.91905370E+01      3.84133680E+01
          19           1      4.58250270E+01      4.11687460E+01      3.79456690E+01
          20           2      4.50268690E+01      4.14567450E+01      3.86653790E+01
          21           2      4.56525150E+01      4.17609270E+01      3.69506760E+01
          22           1      4.71281800E+01      4.16719570E+01      3.85566510E+01
          23           2      3.26589120E+01      4.17707300E+01      3.78673510E+01
          24           2      3.21333010E+01      4.10644590E+01      3.93910360E+01
          29           1      4.68166070E+01      4.31507440E+01      3.90296540E+01
          30           2      4.61758730E+01      4.30865450E+01      3.98683050E+01
          31           2      4.76572970E+01      4.38202560E+01      3.92552000E+01
          32           2      4.62936640E+01      4.37385660E+01      3.82912910E+01
