ITEM: TIMESTEP
           0
ITEM: NUMBER OF ATOMS
          38
ITEM: BOX BOUNDS pp pp pp
      0.00000000E+00      1.53262060E+01
      0.00000000E+00      1.53262060E+01
      0.00000000E+00      1.53262060E+01
ITEM: ATOMS id type xu yu zu
          86           1      3.14523610E+01      3.25520240E+01      3.14408480E+01
          88           2      3.20393620E+01      3.24538840E+01      3.24489690E+01
          93           1      3.02083910E+01      3.32330420E+01      3.18247520E+01
          94           2      2.94962560E+01      3.23596750E+01      3.20420220E+01
          95           2      3.01747030E+01      3.38152600E+01      3.27148590E+01
          96           2      2.98083550E+01      3.37786220E+01      3.09742620E+01
         289           1      3.13420160E+01      3.12417040E+01      4.14353690E+01
         290           2      3.13782670E+01      3.00522550E+01      4.16074350E+01
         291           2      3.02461170E+01      3.15260980E+01      4.19176210E+01
         292           1      3.24896820E+01      3.20256840E+01      4.19522210E+01
         293           2      3.24530840E+01      3.30576040E+01      4.13651830E+01
         294           2      3.34843980E+01      3.16126730E+01      4.16352510E+01
         295           1      3.22585610E+01      3.23416970E+01      4.34379710E+01
         296           2      3.20359010E+01      3.14161590E+01      4.39787940E+01
         297           2      3.13141710E+01      3.29398970E+01      2.81044830E+01
         298           1      3.34028100E+01      3.31562660E+01      2.88544830E+01
         299           2      3.40535900E+01      3.36032180E+01      4.33390970E+01
         300           2      3.41496170E+01      3.24088140E+01      2.92480140E+01
         301           1      3.29008940E+01      3.41064390E+01      2.99128850E+01
         302           2      3.22161300E+01      3.33036470E+01      3.06798140E+01
         303           2      3.21821060E+01      3.47960330E+01      4.47725760E+01
         304           1      3.40828930E+01      3.48539230E+01      3.05821970E+01
         305           2      3.47672630E+01      3.40891800E+01      3.09347570E+01
         306           2      3.37207660E+01      3.53326560E+01      3.15212330E+01
         307           1      3.47555820E+01      3.60230530E+01      2.97793910E+01
         308           2      3.39658360E+01      3.66517580E+01      2.94740400E+01
         309           2      3.53170630E+01      3.57408300E+01      2.89067670E+01
         310           1      3.58779120E+01      3.68137610E+01      3.05788820E+01
         311           2      3.67767400E+01      3.61338130E+01      3.08751050E+01
         312           2      3.54645300E+01      3.71419320E+01      3.15747240E+01
         313           1      3.13644680E+01      3.13477800E+01      3.99402870E+01
         314           2      3.17895570E+01      3.22900990E+01      3.94116860E+01
         315           2      3.20710880E+01      3.05966950E+01      3.95535350E+01
         316           2      3.03319490E+01      3.11728430E+01      3.95012810E+01
         317           1      3.64744280E+01      3.79552810E+01      2.96822390E+01
         318           2      3.73157210E+01      3.76312770E+01      2.90085300E+01
         319           2      3.56672220E+01      3.82598520E+01      2.90798650E+01
         320           2      3.68224620E+01      3.87867440E+01      3.02009380E+01
