ITEM: TIMESTEP
           0
ITEM: NUMBER OF ATOMS
           7
ITEM: BOX BOUNDS pp pp pp
      0.00000000E+00      1.53262060E+01
      0.00000000E+00      1.53262060E+01
      0.00000000E+00      1.53262060E+01
ITEM: ATOMS id type xu yu zu
         225           1      2.61566850E+01      4.09024550E+01      4.45749570E+01
         226           2      2.51885310E+01      4.11397200E+01      4.41202360E+01
         227           2      2.71170030E+01      4.07501600E+01      4.40025910E+01
         249           1      2.61333130E+01      2.53339790E+01      4.60059930E+01
         250           2      2.56943510E+01      2.61704520E+01      4.66666060E+01
         251           2      2.56098970E+01      2.44214190E+01      4.61704060E+01
         252           2      2.71407810E+01      2.52013750E+01      4.63808420E+01
