ITEM: TIMESTEP
           0
ITEM: NUMBER OF ATOMS
          27
ITEM: BOX BOUNDS pp pp pp
      0.00000000E+00      1.53262060E+01
      0.00000000E+00      1.53262060E+01
      0.00000000E+00      1.53262060E+01
ITEM: ATOMS id type xu yu zu
          65           1      3.95131480E+01      3.65520540E+01      3.22329810E+01
          66           2      3.93762100E+01      3.76995580E+01      3.22768030E+01
          68           1      4.08791790E+01      3.61904790E+01      3.28591430E+01
          69           2      4.10375290E+01      3.65794830E+01      3.39256600E+01
          70           2      4.16389680E+01      3.69198300E+01      3.23843640E+01
          71           1      4.09013450E+01      3.46282770E+01      3.24384620E+01
          72           2      4.02082370E+01      3.41442470E+01      3.30950340E+01
          73           2      4.18890910E+01      3.41648160E+01      3.27194010E+01
          74           1      4.02818460E+01      1.92775830E+01      3.10364380E+01
          75           2      3.96153550E+01      1.83617310E+01      3.09792440E+01
          76           2      4.09352110E+01      1.90129220E+01      3.01628430E+01
          77           1      3.95940450E+01      2.05593590E+01      3.08696940E+01
          78           2      4.03470770E+01      3.64550810E+01      3.02229250E+01
          79           2      3.86847460E+01      3.60911450E+01      3.28588380E+01
          80           1      3.83462230E+01      2.05076020E+01      3.00327050E+01
          81           2      3.74857640E+01      2.04226630E+01      3.06007620E+01
          82           2      3.82501770E+01      1.97049150E+01      2.92385020E+01
          83           1      3.82449510E+01      2.18776290E+01      2.92671260E+01
          84           2      3.88017280E+01      2.18007950E+01      2.82682460E+01
          85           2      3.86961570E+01      2.27466300E+01      2.97484080E+01
          86           1      3.68643640E+01      2.21164910E+01      2.86967310E+01
          87           2      3.61501730E+01      2.23982850E+01      2.95791160E+01
          88           2      3.63605050E+01      2.12056050E+01      2.81913590E+01
          93           1      3.68086350E+01      2.32560440E+01      2.77226080E+01
          94           2      3.74684690E+01      2.30981160E+01      2.68769680E+01
          95           2      3.58044290E+01      2.32467910E+01      2.72729690E+01
          96           2      3.69358170E+01      2.42548440E+01      2.80267370E+01
