ITEM: TIMESTEP
           0
ITEM: NUMBER OF ATOMS
          41
ITEM: BOX BOUNDS pp pp pp
      0.00000000E+00      1.53262060E+01
      0.00000000E+00      1.53262060E+01
      0.00000000E+00      1.53262060E+01
ITEM: ATOMS id type xu yu zu
         257           1      3.82938940E+01      3.31265000E+01      4.10511670E+01
         258           2      3.78185650E+01      3.41985230E+01      4.08550040E+01
         259           2      3.78188600E+01      3.26908680E+01      4.19240600E+01
         260           1      3.77299770E+01      3.24238480E+01      3.97975690E+01
         261           2      3.66591780E+01      3.26794800E+01      3.97933080E+01
         262           2      3.78792690E+01      3.12876700E+01      3.97515990E+01
         263           1      3.82651330E+01      3.29801720E+01      3.84757510E+01
         264           2      3.94524330E+01      3.28879400E+01      3.86446640E+01
         265           2      3.78020400E+01      3.39723840E+01      3.83482120E+01
         266           1      3.76818220E+01      3.20512250E+01      3.74208810E+01
         267           2      3.66125050E+01      3.23649500E+01      3.72144590E+01
         268           2      3.76099200E+01      3.10235060E+01      3.77628640E+01
         269           1      3.85366140E+01      3.20638950E+01      3.60869060E+01
         270           2      3.92071680E+01      3.07078780E+01      3.45906110E+01
         271           2      3.95230950E+01      3.19439510E+01      3.65691710E+01
         272           1      3.84117080E+01      3.34560780E+01      3.54229170E+01
         273           2      3.81616450E+01      3.41897500E+01      3.62091590E+01
         274           2      3.76375100E+01      3.35144080E+01      3.46342470E+01
         275           1      3.95551420E+01      3.39172950E+01      3.44918570E+01
         276           2      3.91431260E+01      3.46307640E+01      3.37990070E+01
         277           2      3.99283880E+01      3.31199720E+01      3.36880270E+01
         278           1      4.07744790E+01      3.43651700E+01      3.52401450E+01
         279           2      4.16510140E+01      3.45049890E+01      3.44728040E+01
         280           2      4.11925900E+01      3.35599810E+01      3.58887610E+01
         281           1      3.98777260E+01      3.34029380E+01      4.13033450E+01
         282           2      4.04559530E+01      3.23285090E+01      4.15488380E+01
         283           2      4.04210800E+01      3.37873570E+01      4.03702660E+01
         284           2      3.98247180E+01      3.39785020E+01      4.22435560E+01
         285           1      4.05664220E+01      3.57513580E+01      3.57485810E+01
         286           2      4.07720450E+01      3.64976200E+01      3.49562500E+01
         287           2      3.95319900E+01      3.59636390E+01      3.61115660E+01
         288           2      4.10809060E+01      3.59627090E+01      3.67275010E+01
         321           1      3.70889950E+01      3.05814950E+01      1.89633470E+01
         322           2      3.70655490E+01      3.12785660E+01      1.81463760E+01
         323           2      3.72076340E+01      2.95220250E+01      1.86006670E+01
         324           1      3.83380640E+01      3.08902180E+01      3.52145150E+01
         325           2      3.85154920E+01      2.99776300E+01      3.58499620E+01
         345           1      3.57644100E+01      3.07718390E+01      1.97341070E+01
         346           2      3.47402880E+01      3.08106900E+01      1.93153700E+01
         347           2      3.57409640E+01      2.99812680E+01      2.05533610E+01
         348           2      3.58526270E+01      3.17251310E+01      2.01512130E+01
