ITEM: TIMESTEP
           0
ITEM: NUMBER OF ATOMS
          16
ITEM: BOX BOUNDS pp pp pp
      0.00000000E+00      1.53262060E+01
      0.00000000E+00      1.53262060E+01
      0.00000000E+00      1.53262060E+01
ITEM: ATOMS id type xu yu zu
          45           1      2.84452540E+01      2.72191190E+01      2.62540260E+01
          46           2      2.73943910E+01      2.69988140E+01      2.62112540E+01
          47           2      4.43841250E+01      2.73041140E+01      2.71375470E+01
          48           1      4.46053280E+01      2.69723500E+01      2.49928370E+01
          49           2      4.56393120E+01      2.69257290E+01      2.53304790E+01
          50           2      4.44509460E+01      2.78375290E+01      2.42306410E+01
          51           1      2.90630340E+01      2.57138870E+01      2.41308810E+01
          52           2      2.85976380E+01      2.48856240E+01      2.46315010E+01
          53           2      3.00946340E+01      2.56105730E+01      2.37150690E+01
          54           1      4.33681690E+01      2.57835880E+01      3.83140080E+01
          55           2      4.34524500E+01      2.66217100E+01      3.76828460E+01
          56           2      4.24367240E+01      2.60254270E+01      3.87863380E+01
          61           1      2.79318360E+01      2.44765420E+01      3.74837910E+01
          62           2      2.74325840E+01      2.47445330E+01      3.65152680E+01
          63           2      2.89192410E+01      2.40680990E+01      3.72418640E+01
          64           2      2.73045900E+01      2.36567130E+01      3.78597680E+01
