ITEM: TIMESTEP
           0
ITEM: NUMBER OF ATOMS
           2
ITEM: BOX BOUNDS pp pp pp
      0.00000000E+00      1.53262060E+01
      0.00000000E+00      1.53262060E+01
      0.00000000E+00      1.53262060E+01
ITEM: ATOMS id type xu yu zu
         194           2      3.73452150E+01      4.15105640E+01      4.16264990E+01
         197           2      3.79602120E+01      4.17865490E+01      4.20143710E+01
