ITEM: TIMESTEP
           0
ITEM: NUMBER OF ATOMS
          59
ITEM: BOX BOUNDS pp pp pp
      0.00000000E+00      1.53262060E+01
      0.00000000E+00      1.53262060E+01
      0.00000000E+00      1.53262060E+01
ITEM: ATOMS id type xu yu zu
           1           1      4.32882900E+01      2.53544830E+01      4.04211610E+01
           2           2      4.40388350E+01      2.50096420E+01      4.12654690E+01
           3           2      4.39169140E+01      2.56448500E+01      3.94944900E+01
           4           1      4.22854530E+01      3.95991220E+01      3.98781570E+01
           5           2      4.19559320E+01      3.99864250E+01      3.87708120E+01
           6           2      2.59692530E+01      3.96895350E+01      4.05297510E+01
           7           1      4.26761160E+01      3.80754060E+01      3.97191280E+01
           8           2      2.65499380E+01      3.74304840E+01      3.93497870E+01
           9           2      4.28573220E+01      3.77393220E+01      4.07153320E+01
          10           1      2.86124390E+01      3.78480460E+01      3.88364780E+01
          11           2      2.92986330E+01      3.87016400E+01      3.89631750E+01
          12           2      2.81384440E+01      3.82013230E+01      3.78978270E+01
          13           1      4.46840730E+01      3.65534540E+01      3.88415200E+01
          14           2      4.55456290E+01      3.65687400E+01      3.95624000E+01
          15           2      4.51910550E+01      3.65668380E+01      3.78678770E+01
          16           1      2.86801070E+01      3.52264840E+01      3.91355630E+01
          17           2      2.81183150E+01      3.50888380E+01      3.81553100E+01
          18           2      2.78250920E+01      3.54556600E+01      3.98506790E+01
          19           1      4.49955340E+01      3.40416780E+01      3.94029190E+01
          20           2      4.46017820E+01      3.34687960E+01      4.02510840E+01
          21           2      4.58927900E+01      3.46309720E+01      3.99211840E+01
          22           1      4.53226880E+01      3.30127560E+01      3.82278770E+01
          23           2      3.07312010E+01      3.35626910E+01      3.76118390E+01
          24           2      2.90870310E+01      3.29023840E+01      3.75114290E+01
          25           1      4.26455900E+01      2.66950100E+01      4.09380640E+01
          26           2      4.19060140E+01      2.72030040E+01      4.02220310E+01
          27           2      4.22664720E+01      2.66017260E+01      4.19722970E+01
          28           2      4.34357740E+01      2.74185830E+01      4.10308510E+01
         225           1      3.16377050E+01      4.55583660E+01      4.05110240E+01
         226           2      3.22193810E+01      4.49986790E+01      3.98126460E+01
         227           2      3.22156410E+01      4.57026950E+01      4.14804520E+01
         228           1      3.14064380E+01      3.16632010E+01      3.98047900E+01
         229           2      3.24592970E+01      3.21938180E+01      3.96939290E+01
         230           2      3.06914590E+01      3.22255190E+01      4.05718200E+01
         231           1      3.05512690E+01      4.69193010E+01      3.85996860E+01
         232           2      2.97216060E+01      4.62738120E+01      3.87901580E+01
         234           1      3.13033930E+01      4.61604080E+01      3.75181040E+01
         235           2      3.06912490E+01      4.52535390E+01      3.72217870E+01
         236           2      3.22351870E+01      4.56997200E+01      3.79444850E+01
         237           1      3.17583620E+01      4.69995040E+01      3.63107470E+01
         238           2      3.23380120E+01      4.78886590E+01      3.66895920E+01
         239           2      3.08695950E+01      3.21809760E+01      3.59468510E+01
         240           1      3.27508410E+01      4.62015810E+01      3.54223620E+01
         241           2      3.30506770E+01      3.00769370E+01      3.60530580E+01
         242           2      3.35864000E+01      3.15871060E+01      3.52851920E+01
         243           1      3.22857530E+01      4.56050580E+01      3.39851820E+01
         244           2      3.28084740E+01      4.46625190E+01      3.38153510E+01
         245           2      3.25968860E+01      4.64804520E+01      3.34190430E+01
         246           1      3.07591460E+01      4.51983160E+01      3.36392350E+01
         247           2      3.00923940E+01      4.61087740E+01      3.35427430E+01
         248           2      3.03870970E+01      4.46420190E+01      3.45920020E+01
         249           1      3.03752260E+01      2.95024870E+01      4.09661980E+01
         250           2      2.95034040E+01      3.00587150E+01      4.05809210E+01
         251           2      3.02839770E+01      2.84514410E+01      4.05987990E+01
         252           2      3.01677450E+01      2.92855400E+01      4.20855330E+01
         253           1      3.09195470E+01      4.43925410E+01      3.23466910E+01
         254           2      3.16012080E+01      4.49128640E+01      3.16539250E+01
         255           2      3.14902140E+01      4.34916500E+01      3.25386460E+01
         256           2      2.99942930E+01      4.43282690E+01      4.71083220E+01
