ITEM: TIMESTEP
           0
ITEM: NUMBER OF ATOMS
          20
ITEM: BOX BOUNDS pp pp pp
      0.00000000E+00      1.53262060E+01
      0.00000000E+00      1.53262060E+01
      0.00000000E+00      1.53262060E+01
ITEM: ATOMS id type xu yu zu
         231           1      3.02500770E+01      4.30352430E+01      3.61537210E+01
         232           2      2.93834910E+01      4.23651530E+01      3.61017220E+01
         233           2      3.10256670E+01      4.25475430E+01      3.67314510E+01
         234           1      3.05161640E+01      4.42049970E+01      3.55135940E+01
         235           2      3.14303470E+01      4.45798910E+01      3.58249100E+01
         237           1      2.96796180E+01      4.47521730E+01      3.45211640E+01
         238           2      2.87557250E+01      4.44000540E+01      3.41229190E+01
         240           1      3.01844010E+01      4.59892470E+01      3.38124140E+01
         241           2      3.01329250E+01      3.16688900E+01      3.43774690E+01
         242           2      2.95569050E+01      3.08277620E+01      3.28687520E+01
         243           1      3.16623520E+01      4.58812400E+01      3.33424350E+01
         244           2      3.23977520E+01      4.57389000E+01      3.41895570E+01
         245           2      3.19790760E+01      4.67753180E+01      3.28496170E+01
         246           1      3.17348120E+01      4.47591730E+01      3.22699520E+01
         247           2      3.11957140E+01      4.52024250E+01      3.13349380E+01
         248           2      3.10682270E+01      4.38564630E+01      3.26333240E+01
         253           1      3.31105640E+01      4.43472380E+01      3.18825970E+01
         254           2      3.36461500E+01      4.41275900E+01      3.28064810E+01
         255           2      3.33311010E+01      4.34250920E+01      3.12937940E+01
         256           2      3.36812160E+01      4.50318780E+01      4.66912200E+01
