ITEM: TIMESTEP
           0
ITEM: NUMBER OF ATOMS
          18
ITEM: BOX BOUNDS pp pp pp
      0.00000000E+00      1.53262060E+01
      0.00000000E+00      1.53262060E+01
      0.00000000E+00      1.53262060E+01
ITEM: ATOMS id type xu yu zu
         170           1      3.64909350E+01      2.04454710E+01      3.32175460E+01
         171           2      3.63011790E+01      2.10065600E+01      3.21387900E+01
         173           1      3.54603780E+01      3.63483840E+01      3.41347000E+01
         174           2      3.46610870E+01      3.66847560E+01      3.35753710E+01
         175           2      3.57556930E+01      2.20148500E+01      3.44668670E+01
         176           1      3.48825700E+01      3.51144130E+01      3.49575110E+01
         177           2      3.38616590E+01      3.52502590E+01      3.51734340E+01
         178           2      3.55249710E+01      3.48467110E+01      3.58369570E+01
         179           1      3.51196230E+01      3.38249760E+01      3.36720340E+01
         180           2      3.42340070E+01      3.39672520E+01      3.30708920E+01
         181           2      3.53597130E+01      3.26632760E+01      3.39719670E+01
         182           1      3.64808870E+01      3.42394480E+01      3.31730000E+01
         183           2      3.75938940E+01      3.62969510E+01      3.33834060E+01
         184           2      3.66692700E+01      3.39698010E+01      3.20665700E+01
         189           1      3.74270500E+01      3.34750060E+01      3.40949630E+01
         190           2      3.74696480E+01      3.23514120E+01      3.39129270E+01
         191           2      3.83975620E+01      3.39265410E+01      3.39369270E+01
         192           2      3.72339920E+01      3.34856560E+01      3.51729660E+01
