ITEM: TIMESTEP
           0
ITEM: NUMBER OF ATOMS
           9
ITEM: BOX BOUNDS pp pp pp
      0.00000000E+00      1.53262060E+01
      0.00000000E+00      1.53262060E+01
      0.00000000E+00      1.53262060E+01
ITEM: ATOMS id type xu yu zu
          19           1      3.64132830E+01      4.41830420E+01      4.62839820E+01
          21           2      3.61358370E+01      4.41703740E+01      4.74355000E+01
          22           1      3.70171620E+01      4.26723690E+01      4.62897530E+01
          23           2      2.18392720E+01      4.24674230E+01      4.74028840E+01
          24           2      2.23523910E+01      4.24486150E+01      4.53582930E+01
          29           1      3.55624830E+01      4.28535340E+01      4.58556390E+01
          30           2      3.67734420E+01      4.50571690E+01      4.56383050E+01
          31           2      3.52486200E+01      4.27888290E+01      4.46884710E+01
          32           2      3.50461510E+01      4.24814030E+01      4.68972740E+01
