ITEM: TIMESTEP
           0
ITEM: NUMBER OF ATOMS
          32
ITEM: BOX BOUNDS pp pp pp
      0.00000000E+00      1.53262060E+01
      0.00000000E+00      1.53262060E+01
      0.00000000E+00      1.53262060E+01
ITEM: ATOMS id type xu yu zu
         321           1      3.13701960E+01      2.97972560E+01      1.91367560E+01
         322           2      3.10970370E+01      2.95365940E+01      1.81181700E+01
         323           2      3.17805830E+01      2.88174710E+01      1.95343670E+01
         324           1      3.25716290E+01      3.08084330E+01      3.43967960E+01
         325           2      3.27972450E+01      3.11531280E+01      3.54567330E+01
         326           2      3.22467930E+01      3.15633900E+01      3.37252790E+01
         327           1      3.38534020E+01      3.02067540E+01      3.38542730E+01
         328           2      3.35897210E+01      2.99797980E+01      3.28188070E+01
         329           2      3.41124070E+01      2.93072410E+01      3.43947150E+01
         330           1      3.49903190E+01      3.12304860E+01      3.37278210E+01
         331           2      3.58927600E+01      3.06102680E+01      3.37743700E+01
         332           2      3.51489220E+01      3.17619110E+01      3.46742280E+01
         333           1      3.48816090E+01      3.23365840E+01      3.26538920E+01
         334           2      3.41754880E+01      3.31068480E+01      3.30894480E+01
         335           2      3.44992420E+01      3.19132570E+01      3.16977990E+01
         336           1      3.63105500E+01      3.27678990E+01      3.22783740E+01
         337           2      3.66429720E+01      3.23149960E+01      3.12248150E+01
         338           2      3.69642930E+01      3.24093030E+01      3.30465120E+01
         339           1      3.64525180E+01      3.42511750E+01      3.21858630E+01
         340           2      3.73776290E+01      3.46677830E+01      3.26616850E+01
         341           2      3.56255480E+01      3.46007920E+01      3.28800160E+01
         342           1      3.62639900E+01      3.50133490E+01      3.08928780E+01
         343           2      3.53944070E+01      3.46565260E+01      3.04268480E+01
         344           2      3.71672730E+01      3.49448400E+01      3.01654930E+01
         345           1      3.02414550E+01      3.03905400E+01      1.99921610E+01
         346           2      2.97936680E+01      3.13325180E+01      1.96781920E+01
         347           2      2.94253400E+01      2.97210870E+01      2.01742700E+01
         348           2      3.05906130E+01      3.06428420E+01      2.10189690E+01
         349           1      3.62426730E+01      3.65106070E+01      3.12259300E+01
         350           2      3.71361650E+01      3.69351850E+01      3.16153000E+01
         351           2      3.58235370E+01      3.71796000E+01      3.04511470E+01
         352           2      3.55785040E+01      3.67475280E+01      3.20641440E+01
