ITEM: TIMESTEP
           0
ITEM: NUMBER OF ATOMS
          38
ITEM: BOX BOUNDS pp pp pp
      0.00000000E+00      1.53262060E+01
      0.00000000E+00      1.53262060E+01
      0.00000000E+00      1.53262060E+01
ITEM: ATOMS id type xu yu zu
          65           1      3.61117860E+01      4.67931290E+01      4.30092920E+01
          66           2      3.59717840E+01      4.76386490E+01      4.36741260E+01
          67           2      3.57249930E+01      4.58965900E+01      4.35982930E+01
          68           1      3.57722810E+01      4.67641220E+01      4.15529340E+01
          69           2      3.67106950E+01      4.68883480E+01      4.09537920E+01
          70           2      3.49456740E+01      4.75407310E+01      4.14925240E+01
          71           1      3.48445040E+01      4.55839530E+01      4.08305230E+01
          72           2      3.38984320E+01      4.55365950E+01      4.14061400E+01
          73           2      3.58489330E+01      4.40615660E+01      3.98596300E+01
          74           1      3.43410010E+01      3.06816370E+01      3.93666330E+01
          75           2      3.51059270E+01      3.04843330E+01      3.85460520E+01
          76           2      3.42723370E+01      3.17693320E+01      3.93241210E+01
          77           1      3.29223110E+01      2.99785640E+01      3.88764720E+01
          78           2      3.21242190E+01      4.59203340E+01      3.92079950E+01
          79           2      3.29671010E+01      4.42484190E+01      3.92419030E+01
          80           1      3.31229910E+01      2.99764640E+01      3.73514550E+01
          81           2      3.38346330E+01      2.92453780E+01      3.70748230E+01
          82           2      3.35218660E+01      3.09849570E+01      3.69910130E+01
          83           1      3.17524070E+01      2.96925050E+01      3.66410490E+01
          84           2      3.13119460E+01      2.87346760E+01      3.69334600E+01
          85           2      3.19591990E+01      2.94114980E+01      3.54675840E+01
          86           1      3.09471980E+01      3.09085380E+01      3.68817860E+01
          87           2      3.14719810E+01      3.16588590E+01      3.62716350E+01
          88           2      3.10439430E+01      3.11716710E+01      3.79786340E+01
          89           1      3.75694900E+01      4.65440400E+01      4.32289950E+01
          90           2      3.76228840E+01      4.61012360E+01      4.41993120E+01
          91           2      3.82427100E+01      4.62270730E+01      4.24637240E+01
          92           2      3.82515570E+01      4.75353170E+01      4.34273790E+01
          93           1      2.94004850E+01      3.05408600E+01      3.67811140E+01
          94           2      2.91190870E+01      2.95878230E+01      3.75142550E+01
          95           2      2.87243520E+01      3.13152430E+01      3.72290650E+01
          96           2      2.90579590E+01      3.03913290E+01      3.56613400E+01
         161           1      3.56160440E+01      2.87870680E+01      4.08777110E+01
         162           2      3.66168100E+01      2.88798700E+01      4.14318290E+01
         185           1      3.47866450E+01      2.76907200E+01      4.13856320E+01
         186           2      3.36957370E+01      2.78082740E+01      4.11332460E+01
         187           2      3.49053040E+01      2.74835980E+01      4.24781880E+01
         188           2      3.51333300E+01      2.67774790E+01      5.63406520E+01
