ITEM: TIMESTEP
           0
ITEM: NUMBER OF ATOMS
          14
ITEM: BOX BOUNDS pp pp pp
      0.00000000E+00      1.53262060E+01
      0.00000000E+00      1.53262060E+01
      0.00000000E+00      1.53262060E+01
ITEM: ATOMS id type xu yu zu
         143           2      2.97750890E+01      3.54335890E+01      2.14849180E+01
         144           1      2.93157700E+01      3.60626250E+01      2.06974240E+01
         145           2      2.91078680E+01      3.52247100E+01      1.99173950E+01
         146           2      3.01154430E+01      3.64874360E+01      2.01089890E+01
         147           1      2.82944440E+01      3.70758360E+01      2.11637400E+01
         148           2      2.77187740E+01      3.74947160E+01      2.03448050E+01
         149           2      2.88572070E+01      3.79159270E+01      2.16095660E+01
         150           1      2.72697580E+01      3.67258210E+01      2.22539050E+01
         151           2      2.75417230E+01      3.58072390E+01      2.28034920E+01
         152           2      2.62038910E+01      3.64642010E+01      2.19664260E+01
         157           1      2.71624070E+01      3.79225420E+01      2.31689690E+01
         158           2      2.81195180E+01      3.82330240E+01      2.35335520E+01
         159           2      2.66678660E+01      3.87640700E+01      2.28198400E+01
         160           2      2.65502310E+01      3.76741020E+01      2.41236760E+01
