ITEM: TIMESTEP
           0
ITEM: NUMBER OF ATOMS
          30
ITEM: BOX BOUNDS pp pp pp
      0.00000000E+00      1.53262060E+01
      0.00000000E+00      1.53262060E+01
      0.00000000E+00      1.53262060E+01
ITEM: ATOMS id type xu yu zu
         225           1      3.69363060E+01      3.69804290E+01      3.80280460E+01
         227           2      3.67718750E+01      3.78412860E+01      3.87611870E+01
         228           1      3.56946370E+01      2.13538080E+01      3.73665780E+01
         229           2      3.49015600E+01      2.10138790E+01      3.80519880E+01
         230           2      3.59450720E+01      2.04586820E+01      3.68054870E+01
         231           1      3.52088960E+01      3.77753830E+01      3.64380310E+01
         232           2      3.55279520E+01      3.76454800E+01      3.53385960E+01
         233           2      3.56801420E+01      3.87090200E+01      3.68868100E+01
         234           1      3.36877160E+01      3.78260910E+01      3.61724190E+01
         235           2      3.31854160E+01      3.68471510E+01      3.66537440E+01
         236           2      3.33127140E+01      3.77907550E+01      3.50997750E+01
         237           1      3.29779410E+01      3.91243230E+01      3.66964880E+01
         238           2      3.34883500E+01      4.00559740E+01      3.63784190E+01
         239           2      3.30359290E+01      2.36736630E+01      3.77758740E+01
         240           1      3.15397560E+01      3.91734100E+01      3.61662690E+01
         241           2      3.08931640E+01      2.28101930E+01      3.63375670E+01
         242           2      3.17141440E+01      2.37566010E+01      3.50746440E+01
         243           1      3.08862680E+01      4.05969940E+01      3.65555520E+01
         244           2      3.16624380E+01      4.11983280E+01      3.70858930E+01
         245           2      3.02755330E+01      4.03211930E+01      3.74461900E+01
         246           1      3.01844170E+01      4.12559330E+01      3.54334430E+01
         247           2      2.94768000E+01      4.05870390E+01      3.49033300E+01
         248           2      3.08339300E+01      4.17671480E+01      3.47045580E+01
         249           1      3.81480420E+01      2.10571830E+01      3.78927400E+01
         250           2      3.89840160E+01      2.13187280E+01      3.86783110E+01
         251           2      3.84085630E+01      2.01796800E+01      3.72609840E+01
         253           1      2.93009470E+01      4.24084170E+01      3.60723600E+01
         254           2      2.88801990E+01      4.31068270E+01      3.53226620E+01
         255           2      2.84436300E+01      4.21233550E+01      3.67290890E+01
         256           2      2.98159800E+01      4.29671500E+01      5.21829860E+01
