ITEM: TIMESTEP
           0
ITEM: NUMBER OF ATOMS
           5
ITEM: BOX BOUNDS pp pp pp
      0.00000000E+00      1.53262060E+01
      0.00000000E+00      1.53262060E+01
      0.00000000E+00      1.53262060E+01
ITEM: ATOMS id type xu yu zu
          25           1      3.52487700E+01      3.10837540E+01      4.29431040E+01
          26           2      3.60527270E+01      3.03494980E+01      4.28705140E+01
          27           2      3.58191150E+01      3.17800520E+01      4.33642810E+01
          28           2      3.48712150E+01      3.13347250E+01      4.18504980E+01
         195           2      3.45158100E+01      4.60764580E+01      4.37884880E+01
