ITEM: TIMESTEP
           0
ITEM: NUMBER OF ATOMS
          13
ITEM: BOX BOUNDS pp pp pp
      0.00000000E+00      1.53262060E+01
      0.00000000E+00      1.53262060E+01
      0.00000000E+00      1.53262060E+01
ITEM: ATOMS id type xu yu zu
          33           1      2.34092050E+01      2.95715380E+01      2.45584230E+01
          34           2      2.41220830E+01      3.00825480E+01      2.39025570E+01
          35           2      2.40296480E+01      2.90387100E+01      2.52620880E+01
          36           1      2.28413020E+01      3.07542730E+01      2.53316010E+01
          37           2      2.20916680E+01      3.03587260E+01      2.60879730E+01
          38           2      2.21392230E+01      3.14347910E+01      2.45727110E+01
          39           1      2.38473770E+01      3.16612540E+01      2.60414040E+01
          40           2      2.36955770E+01      3.27244970E+01      2.63625150E+01
          41           2      2.49310930E+01      3.13854990E+01      2.58513790E+01
          57           1      2.22760980E+01      2.87285000E+01      2.39734770E+01
          58           2      2.24846380E+01      2.80926940E+01      2.30648150E+01
          59           2      2.17985360E+01      2.80762970E+01      2.47175740E+01
          60           2      2.14089090E+01      2.93293170E+01      2.36020480E+01
