ITEM: TIMESTEP
           0
ITEM: NUMBER OF ATOMS
          21
ITEM: BOX BOUNDS pp pp pp
      0.00000000E+00      1.53262060E+01
      0.00000000E+00      1.53262060E+01
      0.00000000E+00      1.53262060E+01
ITEM: ATOMS id type xu yu zu
         263           1      2.94092840E+01      3.77200060E+01      2.73335820E+01
         264           2      2.90823320E+01      3.77250870E+01      2.62366750E+01
         265           2      2.98212130E+01      3.67043250E+01      2.75772470E+01
         266           1      2.96133450E+01      3.87940930E+01      2.79893540E+01
         268           2      2.93185470E+01      3.97711490E+01      2.76990640E+01
         269           1      3.05118920E+01      3.87675100E+01      2.92557780E+01
         270           2      3.01889860E+01      3.79481130E+01      3.00026990E+01
         271           2      3.01654390E+01      3.96536610E+01      2.97415670E+01
         272           1      3.19593370E+01      3.90631110E+01      2.88549360E+01
         273           2      3.23626740E+01      4.00322300E+01      2.93230250E+01
         274           2      3.21090390E+01      3.90481590E+01      2.77148300E+01
         275           1      3.31322130E+01      3.79457780E+01      2.92120090E+01
         276           2      3.27578240E+01      3.70146020E+01      2.87456290E+01
         277           2      3.32002910E+01      3.77136120E+01      3.02709600E+01
         278           1      3.46091600E+01      3.84224460E+01      2.87964420E+01
         279           2      3.49549220E+01      3.94496220E+01      2.90313470E+01
         280           2      3.45684100E+01      3.86285140E+01      2.76762170E+01
         285           1      3.56344080E+01      3.72122280E+01      2.90215040E+01
         286           2      3.66571170E+01      3.77535900E+01      2.90534000E+01
         287           2      3.56115350E+01      3.68126840E+01      3.00403730E+01
         288           2      3.56021750E+01      3.65879940E+01      2.81984800E+01
