ITEM: TIMESTEP
           1
ITEM: NUMBER OF ATOMS
         110
ITEM: BOX BOUNDS pp pp pp
                0.000000               15.326206
                0.000000               15.326206
                0.000000               15.326206
ITEM: ATOMS id type xu yu zu 
       1   1  3.62301060E+01  2.76402300E+01  3.90727430E+01
       4   1  3.68971830E+01  4.42039900E+01  3.98845000E+01
       7   1  3.73439100E+01  4.54334910E+01  3.90609180E+01
      10   1  2.28066670E+01  4.49777500E+01  3.77600360E+01
      13   1  3.93371670E+01  4.59184080E+01  3.73434230E+01
      16   1  2.48672560E+01  4.54755290E+01  3.61498300E+01
      19   1  4.09554550E+01  4.42153110E+01  3.62740920E+01
      22   1  4.20093420E+01  4.40252840E+01  3.73081600E+01
      25   1  3.49312250E+01  2.79445940E+01  3.84333330E+01
      29   1  4.15302420E+01  4.35349010E+01  3.86740580E+01
      33   1  2.96949380E+01  3.24457750E+01  3.44833590E+01
      36   1  3.01630050E+01  3.12764660E+01  3.54187090E+01
      39   1  2.98679590E+01  3.14513640E+01  3.68979270E+01
      42   1  3.03664880E+01  3.02659390E+01  3.77194050E+01
      45   1  3.19204100E+01  3.02334910E+01  3.78741280E+01
      48   1  4.80402910E+01  3.16075520E+01  3.78573890E+01
      51   1  3.23924820E+01  3.24489030E+01  3.91049050E+01
      54   1  4.77969270E+01  3.39904340E+01  5.42342310E+01
      57   1  2.82482530E+01  3.22400450E+01  3.41678890E+01
      61   1  3.14988030E+01  3.46037630E+01  5.31880810E+01
      65   1  4.17032140E+01  3.98462000E+01  2.77460820E+01
      68   1  4.25526280E+01  3.86841560E+01  2.85615990E+01
      71   1  4.16134660E+01  3.80618940E+01  2.97011510E+01
      74   1  4.24358420E+01  2.17176920E+01  3.05569700E+01
      77   1  4.22713740E+01  2.19775010E+01  3.21314330E+01
      80   1  4.33113710E+01  2.30637500E+01  3.26192820E+01
      83   1  4.32930610E+01  2.36085560E+01  3.41047230E+01
      86   1  4.39965990E+01  2.49143240E+01  3.38749100E+01
      89   1  4.25286800E+01  4.08483220E+01  2.68762590E+01
      93   1  4.41571990E+01  2.58145000E+01  3.50430820E+01
      97   1  2.82581820E+01  3.83941850E+01  3.91947910E+01
     100   1  2.82791030E+01  3.71489570E+01  4.01429090E+01
     103   1  2.95970850E+01  3.67703180E+01  4.07932740E+01
     106   1  2.96056590E+01  3.53386330E+01  2.58878330E+01
     109   1  2.86482270E+01  3.50416730E+01  2.69998560E+01
     112   1  2.83426090E+01  3.35985220E+01  2.73301910E+01
     115   1  2.76108620E+01  3.29988820E+01  2.61285880E+01
     118   1  2.60585050E+01  3.32883840E+01  2.61378400E+01
     121   1  2.84135250E+01  3.80412030E+01  3.76796670E+01
     125   1  2.52897270E+01  3.21607820E+01  2.54567420E+01
     129   1  3.04404450E+01  3.49834640E+01  3.16103920E+01
     132   1  3.18475070E+01  3.52805050E+01  3.12420590E+01
     135   1  3.21278630E+01  3.60503630E+01  2.99303250E+01
     138   1  3.19471720E+01  3.75780370E+01  3.01153580E+01
     141   1  3.31930800E+01  3.83900700E+01  3.05994660E+01
     144   1  3.28405490E+01  3.99729130E+01  3.07033650E+01
     147   1  3.20145450E+01  4.02442880E+01  3.20670300E+01
     150   1  3.27437590E+01  4.12417020E+01  3.29801080E+01
     153   1  2.96992680E+01  3.38430410E+01  3.08859800E+01
     157   1  3.22605210E+01  4.11851030E+01  3.44246150E+01
     161   1  3.39852010E+01  3.01444890E+01  3.37012210E+01
     164   1  3.47673230E+01  2.98202730E+01  3.23814810E+01
     167   1  3.60743490E+01  2.89600540E+01  3.25473100E+01
     170   1  3.61657100E+01  2.74197130E+01  3.21460660E+01
     173   1  3.75745040E+01  4.24667210E+01  3.17222950E+01
     176   1  3.88934670E+01  4.27341160E+01  3.24777540E+01
     179   1  3.92711730E+01  4.18178300E+01  3.37071320E+01
     182   1  3.80818870E+01  4.18590910E+01  3.48301350E+01
     185   1  3.46985420E+01  3.04338030E+01  3.49709350E+01
     189   1  3.85158400E+01  4.11728430E+01  3.61305360E+01
     193   1  3.08130500E+01  2.66301550E+01  4.10870560E+01
     196   1  3.21602420E+01  2.72960290E+01  4.15223780E+01
     199   1  3.31044040E+01  2.66482210E+01  4.25352090E+01
     202   1  3.43992690E+01  2.74081430E+01  4.27398100E+01
     205   1  3.53371770E+01  2.66865620E+01  4.36503250E+01
     208   1  3.59945390E+01  2.54585700E+01  4.29622240E+01
     211   1  3.73885040E+01  4.09054310E+01  4.22806930E+01
     214   1  3.75571610E+01  3.98190240E+01  4.12687550E+01
     217   1  3.01301870E+01  2.73514520E+01  3.99300270E+01
     221   1  3.85125880E+01  4.02439340E+01  4.01921810E+01
     225   1  2.98993800E+01  4.33723420E+01  3.10369290E+01
     228   1  3.01397540E+01  2.90743640E+01  2.98865520E+01
     231   1  2.88798130E+01  4.51744570E+01  2.95528320E+01
     234   1  2.87408920E+01  4.53449650E+01  2.81120050E+01
     237   1  2.81476220E+01  4.45083200E+01  2.73221280E+01
     240   1  4.24470070E+01  3.61202320E+01  3.29844860E+01
     243   1  3.86359390E+01  3.52106740E+01  3.14364850E+01
     246   1  3.82324320E+01  3.67107820E+01  3.10140160E+01
     249   1  2.92375610E+01  2.67438970E+01  3.06197050E+01
     253   1  3.65775000E+01  3.70437860E+01  3.11433440E+01
     257   1  3.59038500E+01  3.65058030E+01  4.24135600E+01
     260   1  3.72336360E+01  3.57553280E+01  4.26249770E+01
     263   1  3.79702290E+01  3.53366880E+01  4.12999980E+01
     266   1  3.85872190E+01  3.64816710E+01  4.04619220E+01
     269   1  3.97439450E+01  3.62913750E+01  3.94446070E+01
     272   1  3.95181410E+01  3.51803080E+01  3.84110400E+01
     275   1  3.99124780E+01  3.56973680E+01  3.69532510E+01
     278   1  3.90436400E+01  3.68128860E+01  3.63944090E+01
     281   1  3.47372330E+01  3.58465490E+01  4.18562250E+01
     285   1  3.98593040E+01  3.74404020E+01  3.53094470E+01
     289   1  4.01631540E+01  2.92448910E+01  4.40391290E+01
     292   1  3.88078620E+01  2.93586760E+01  4.33255400E+01
     295   1  3.78939600E+01  3.04230430E+01  4.42278060E+01
     298   1  3.75765210E+01  3.17990290E+01  2.83126870E+01
     301   1  3.64517260E+01  3.25406070E+01  2.89959230E+01
     304   1  3.51133080E+01  3.20391530E+01  2.84244250E+01
     307   1  3.41093070E+01  3.30472240E+01  2.88114230E+01
     310   1  3.26952030E+01  3.28079600E+01  2.81477300E+01
     313   1  4.06484870E+01  3.06036770E+01  4.46285700E+01
     317   1  3.24926940E+01  3.15135660E+01  2.74870680E+01
     321   1  3.35131280E+01  3.91765970E+01  2.28404920E+01
     324   1  3.39560180E+01  3.92254630E+01  3.67059290E+01
     327   1  3.52718280E+01  3.83629220E+01  3.64480650E+01
     330   1  3.56322510E+01  3.80799270E+01  3.49940070E+01
     333   1  3.48479200E+01  3.68655020E+01  3.43000890E+01
     336   1  3.55527560E+01  3.54810540E+01  3.44582480E+01
     339   1  3.51452910E+01  3.46428050E+01  3.56862750E+01
     342   1  3.63866560E+01  3.39369650E+01  3.61424390E+01
     345   1  3.22688640E+01  4.01371570E+01  2.30392150E+01
     349   1  3.62439810E+01  3.32599960E+01  3.74256910E+01
ITEM: TIMESTEP
           2
ITEM: NUMBER OF ATOMS
         110
ITEM: BOX BOUNDS pp pp pp
                0.000000               15.326206
                0.000000               15.326206
                0.000000               15.326206
ITEM: ATOMS id type xu yu zu 
       1   1  3.64707580E+01  3.39380910E+01  4.29967330E+01
       4   1  3.70981990E+01  4.80566520E+01  4.23187540E+01
       7   1  3.68204050E+01  4.77061870E+01  4.08213360E+01
      10   1  3.01712260E+01  4.12305460E+01  3.51280930E+01
      13   1  4.40640150E+01  4.06790430E+01  3.50445160E+01
      16   1  2.99259390E+01  3.97610130E+01  3.53070060E+01
      19   1  4.57301510E+01  3.87425030E+01  3.41849540E+01
      22   1  4.64208510E+01  3.75152920E+01  3.48476650E+01
      25   1  3.54833980E+01  3.36498580E+01  4.40277470E+01
      29   1  4.69763880E+01  3.65476640E+01  3.39144250E+01
      33   1  2.71269780E+01  2.96838890E+01  3.58647270E+01
      36   1  2.83425180E+01  2.88081530E+01  3.62315810E+01
      39   1  2.96460660E+01  2.95102880E+01  3.67465430E+01
      42   1  3.00951010E+01  3.07202950E+01  3.58405800E+01
      45   1  2.97510660E+01  3.20858390E+01  3.64908180E+01
      48   1  4.47268680E+01  3.31864920E+01  3.55349180E+01
      51   1  2.88151130E+01  3.44087170E+01  3.62122980E+01
      54   1  4.31876880E+01  3.51957030E+01  5.06683430E+01
      57   1  2.58425110E+01  2.91408880E+01  3.64993470E+01
      61   1  2.70882620E+01  3.62930470E+01  5.13604610E+01
      65   1  3.37542530E+01  4.43322330E+01  3.71940790E+01
      68   1  3.40822240E+01  4.51366520E+01  3.60125220E+01
      71   1  3.45262910E+01  4.43513470E+01  3.48168320E+01
      74   1  3.42718400E+01  2.94351980E+01  3.33299170E+01
      77   1  3.52614800E+01  2.88601200E+01  3.23412740E+01
      80   1  3.50478920E+01  2.73744980E+01  3.20284020E+01
      83   1  3.61801020E+01  2.69153920E+01  3.10657970E+01
      86   1  3.56760550E+01  2.58129730E+01  3.00323950E+01
      89   1  3.33544810E+01  4.51913870E+01  3.83469480E+01
      93   1  3.52552320E+01  2.44774330E+01  3.05820310E+01
      97   1  2.81451620E+01  3.64292860E+01  4.56930420E+01
     100   1  2.89344860E+01  3.76923710E+01  4.59429200E+01
     103   1  2.90020640E+01  3.86984210E+01  4.46733180E+01
     106   1  2.96114780E+01  3.99914020E+01  2.98317710E+01
     109   1  2.98111750E+01  4.11117390E+01  2.87171540E+01
     112   1  2.99764140E+01  4.24857060E+01  2.94125580E+01
     115   1  3.15304990E+01  4.27779720E+01  2.95458690E+01
     118   1  3.20909200E+01  4.41574640E+01  2.98232080E+01
     121   1  2.78361570E+01  3.55391040E+01  4.68557230E+01
     125   1  3.12513680E+01  4.49474590E+01  3.07881090E+01
     129   1  4.44497840E+01  3.67907770E+01  2.39381790E+01
     132   1  4.47200000E+01  3.57830000E+01  2.50612920E+01
     135   1  4.37048550E+01  3.45436100E+01  2.50612770E+01
     138   1  4.26144560E+01  3.47512640E+01  2.61409980E+01
     141   1  4.20589480E+01  3.61900370E+01  2.63932080E+01
     144   1  4.07685540E+01  3.61002330E+01  2.72660190E+01
     147   1  4.02104280E+01  3.74622140E+01  2.77014550E+01
     150   1  3.88322290E+01  3.73495160E+01  2.83812800E+01
     153   1  4.51696240E+01  3.81560890E+01  2.39535200E+01
     157   1  3.84159620E+01  3.86645610E+01  2.90663140E+01
     161   1  4.02420700E+01  2.73712920E+01  2.90553080E+01
     164   1  4.14746320E+01  2.72400390E+01  2.98955150E+01
     167   1  4.13289370E+01  2.73232710E+01  3.13830860E+01
     170   1  4.13375550E+01  2.57503330E+01  3.18755550E+01
     173   1  4.08466890E+01  4.08800570E+01  3.32903440E+01
     176   1  4.04879540E+01  3.93683250E+01  3.35153830E+01
     179   1  3.90105350E+01  3.92118330E+01  3.31861760E+01
     182   1  3.84196120E+01  3.78615950E+01  3.39152440E+01
     185   1  3.96146870E+01  2.87131730E+01  2.89397180E+01
     189   1  3.88498670E+01  3.64805580E+01  3.34018130E+01
     193   1  3.65877220E+01  2.76428690E+01  4.14400120E+01
     196   1  3.71625120E+01  2.65761370E+01  4.04357820E+01
     199   1  3.71745950E+01  2.72500230E+01  3.90094320E+01
     202   1  3.80764310E+01  2.65551790E+01  3.80414000E+01
     205   1  3.75529450E+01  2.65589030E+01  3.66078930E+01
     208   1  3.63237160E+01  2.57432050E+01  3.62768540E+01
     211   1  3.64309450E+01  3.95310040E+01  3.63059410E+01
     214   1  3.50735990E+01  3.88830610E+01  3.60637700E+01
     217   1  3.50975490E+01  2.75635200E+01  4.16895090E+01
     221   1  3.43745450E+01  3.94189730E+01  3.47882170E+01
     225   1  3.26043100E+01  4.16059200E+01  3.90929670E+01
     228   1  3.11723240E+01  2.59511860E+01  3.94836200E+01
     231   1  3.01841950E+01  4.24050330E+01  3.97107910E+01
     234   1  2.91503930E+01  4.20088030E+01  4.07857510E+01
     237   1  2.78116850E+01  4.15436540E+01  4.01198750E+01
     240   1  2.67015870E+01  4.11864080E+01  4.11329770E+01
     243   1  2.54681820E+01  4.06195230E+01  4.04055770E+01
     246   1  2.57155310E+01  3.92727890E+01  3.95477690E+01
     249   1  3.34895050E+01  2.51255590E+01  3.95144490E+01
     253   1  2.55914000E+01  3.92632460E+01  3.80585730E+01
     257   1  3.61374310E+01  3.73791250E+01  4.04619300E+01
     260   1  3.74988910E+01  3.74045990E+01  3.97503630E+01
     263   1  3.77506880E+01  3.63253030E+01  3.86849500E+01
     266   1  3.88515350E+01  3.53648980E+01  3.92299790E+01
     269   1  3.90354850E+01  3.39846300E+01  3.85377830E+01
     272   1  3.95091570E+01  3.41578150E+01  3.70558510E+01
     275   1  3.96764060E+01  3.28306570E+01  3.64104010E+01
     278   1  3.83607620E+01  3.22164310E+01  3.60247850E+01
     281   1  3.58215900E+01  3.84435430E+01  4.16191200E+01
     285   1  3.77107790E+01  3.11798470E+01  3.68996830E+01
     289   1  2.66347200E+01  3.09321190E+01  4.04859970E+01
     292   1  2.75716660E+01  3.05924920E+01  4.17256390E+01
     295   1  2.91160550E+01  3.06555800E+01  4.15510720E+01
     298   1  2.98620140E+01  3.11631060E+01  2.75167140E+01
     301   1  3.04679480E+01  3.26423550E+01  2.74988770E+01
     304   1  3.09611360E+01  3.31176920E+01  2.88820560E+01
     307   1  3.16158230E+01  3.44218290E+01  2.88860270E+01
     310   1  3.20322850E+01  3.49355870E+01  3.02325250E+01
     313   1  2.53928970E+01  3.00357360E+01  4.04596650E+01
     317   1  3.27113800E+01  3.62734960E+01  3.00060990E+01
     321   1  3.48107760E+01  3.42488480E+01  2.11504220E+01
     324   1  3.43358120E+01  3.34998600E+01  3.52575530E+01
     327   1  3.46145310E+01  3.43601830E+01  3.39695090E+01
     330   1  3.60199730E+01  3.42981300E+01  3.33150040E+01
     333   1  3.63480290E+01  3.31349070E+01  3.24289460E+01
     336   1  3.78103710E+01  3.28078080E+01  3.24367300E+01
     339   1  3.86514350E+01  3.34026480E+01  3.12600280E+01
     342   1  3.93815630E+01  3.22253710E+01  3.06029990E+01
     345   1  3.45678130E+01  3.34737990E+01  2.24481630E+01
     349   1  4.05206880E+01  3.26124450E+01  2.95861770E+01
ITEM: TIMESTEP
           3
ITEM: NUMBER OF ATOMS
         110
ITEM: BOX BOUNDS pp pp pp
                0.000000               15.326206
                0.000000               15.326206
                0.000000               15.326206
ITEM: ATOMS id type xu yu zu 
       1   1  3.95960650E+01  2.93813040E+01  3.83558500E+01
       4   1  3.91857210E+01  4.57911140E+01  3.74697570E+01
       7   1  3.85254130E+01  4.70791840E+01  3.81929650E+01
      10   1  2.31300370E+01  4.82630510E+01  3.73292060E+01
      13   1  3.73423560E+01  4.84070370E+01  3.63368600E+01
      16   1  2.23670390E+01  4.77381760E+01  3.50443800E+01
      19   1  3.67089760E+01  4.81490850E+01  3.39054350E+01
      22   1  3.73273640E+01  4.80895140E+01  3.25256380E+01
      25   1  4.03419040E+01  2.83175190E+01  3.76068590E+01
      29   1  3.79644890E+01  4.93634190E+01  3.20803230E+01
      33   1  3.22237080E+01  3.25688810E+01  3.11884760E+01
      36   1  3.21687700E+01  3.17388750E+01  2.98636530E+01
      39   1  3.06969060E+01  3.13053830E+01  2.95927480E+01
      42   1  3.04473540E+01  3.01334620E+01  2.85883900E+01
      45   1  3.09461840E+01  2.87487770E+01  2.91340120E+01
      48   1  4.57284030E+01  2.76042920E+01  2.81889850E+01
      51   1  3.11961540E+01  2.75041110E+01  2.68628740E+01
      54   1  4.79286230E+01  2.68539930E+01  4.23288900E+01
      57   1  3.33859730E+01  3.34443190E+01  3.15017160E+01
      61   1  3.25937200E+01  2.53482030E+01  4.27092180E+01
      65   1  3.42213720E+01  3.83713040E+01  3.85293420E+01
      68   1  3.52235680E+01  3.75520220E+01  3.76394460E+01
      71   1  3.47858510E+01  3.73859230E+01  3.62042600E+01
      74   1  3.56799940E+01  2.11564050E+01  3.53575660E+01
      77   1  3.69928150E+01  2.14986660E+01  3.46959890E+01
      80   1  3.68183170E+01  2.28035740E+01  3.37801280E+01
      83   1  3.80344850E+01  2.31210450E+01  3.28858790E+01
      86   1  3.84492460E+01  2.44879000E+01  3.24965780E+01
      89   1  3.48811990E+01  3.89587130E+01  3.98045550E+01
      93   1  3.95143250E+01  2.50932880E+01  3.34950560E+01
      97   1  3.17624490E+01  3.50940220E+01  4.06206180E+01
     100   1  3.04118080E+01  3.52761530E+01  4.14068360E+01
     103   1  2.95835280E+01  3.64503100E+01  4.06404540E+01
     106   1  3.00440730E+01  3.78329740E+01  2.55515010E+01
     109   1  2.93631090E+01  3.83723640E+01  2.67364640E+01
     112   1  2.78404810E+01  3.88194310E+01  2.64257070E+01
     115   1  2.73281980E+01  4.01288050E+01  2.70696840E+01
     118   1  2.75681840E+01  4.01798390E+01  2.85772350E+01
     121   1  3.27583160E+01  3.40239930E+01  4.09552070E+01
     125   1  2.65554780E+01  4.09655090E+01  2.94658830E+01
     129   1  3.67385510E+01  3.70762020E+01  2.87133640E+01
     132   1  3.56401710E+01  3.79122260E+01  2.79939030E+01
     135   1  3.42550720E+01  3.76537220E+01  2.84193350E+01
     138   1  3.39081010E+01  3.84592870E+01  2.96935820E+01
     141   1  3.26175650E+01  3.79729700E+01  3.04522120E+01
     144   1  3.28713800E+01  3.80316930E+01  3.19869740E+01
     147   1  3.29058750E+01  3.95350890E+01  3.24464240E+01
     150   1  2.92004720E+01  4.14793250E+01  3.19110470E+01
     153   1  3.80677060E+01  3.77877430E+01  2.88178380E+01
     157   1  2.88894540E+01  4.01424840E+01  3.21491470E+01
     161   1  4.39436220E+01  2.92017130E+01  3.44995120E+01
     164   1  4.48835130E+01  3.03645640E+01  3.42247820E+01
     167   1  4.63626940E+01  3.02163340E+01  3.47493850E+01
     170   1  4.72273390E+01  2.91107710E+01  3.41489310E+01
     173   1  4.86590210E+01  4.45814970E+01  3.47296420E+01
     176   1  4.96803710E+01  4.35569430E+01  3.42022470E+01
     179   1  5.11555010E+01  4.37487000E+01  3.46978220E+01
     182   1  5.19754500E+01  4.25524450E+01  3.51080960E+01
     185   1  4.37961570E+01  2.88755800E+01  3.60109390E+01
     189   1  5.15983960E+01  4.19511420E+01  3.64622980E+01
     193   1  3.67694000E+01  2.69923970E+01  4.46957900E+01
     196   1  3.77905190E+01  2.70248910E+01  4.35089810E+01
     199   1  3.71703290E+01  2.65474110E+01  4.20875410E+01
     202   1  3.84220800E+01  2.59095850E+01  4.13926460E+01
     205   1  3.82025740E+01  2.58357340E+01  3.98625180E+01
     208   1  3.90899970E+01  2.47487710E+01  3.90542560E+01
     211   1  3.88827610E+01  3.86257250E+01  3.95082660E+01
     214   1  4.00177140E+01  3.76489700E+01  3.88696070E+01
     217   1  3.70758460E+01  2.78717600E+01  4.58768560E+01
     221   1  4.00513530E+01  3.61905760E+01  3.92575760E+01
     225   1  2.72550190E+01  5.33762530E+01  3.50358320E+01
     228   1  2.68822640E+01  3.65109820E+01  3.55339230E+01
     231   1  2.77421780E+01  5.13480770E+01  3.66938130E+01
     234   1  2.74793090E+01  4.98964010E+01  3.70322620E+01
     237   1  2.82889190E+01  4.92357060E+01  3.81075040E+01
     240   1  2.78420090E+01  4.76398350E+01  3.81647490E+01
     243   1  2.85516660E+01  4.68804780E+01  3.93073990E+01
     246   1  2.76832150E+01  4.56209850E+01  3.95388420E+01
     249   1  2.68666430E+01  3.91143220E+01  3.60737370E+01
     253   1  2.83656110E+01  4.45792890E+01  4.03328560E+01
     257   1  4.07859800E+01  2.98542220E+01  4.78498710E+01
     260   1  4.13922580E+01  2.90708890E+01  4.66780670E+01
     263   1  4.18009320E+01  2.99310230E+01  4.54863870E+01
     266   1  4.17588450E+01  2.93900640E+01  4.40698160E+01
     269   1  4.13550050E+01  3.02594530E+01  4.29579490E+01
     272   1  3.98231800E+01  3.07526120E+01  4.30313990E+01
     275   1  3.98027560E+01  3.22122870E+01  4.27235670E+01
     278   1  3.85111380E+01  3.29957030E+01  4.31602750E+01
     281   1  4.00054270E+01  2.89938150E+01  4.88248930E+01
     285   1  3.82604980E+01  3.41974900E+01  4.22076550E+01
     289   1  3.12460420E+01  2.56119960E+01  3.71939500E+01
     292   1  3.15219570E+01  2.61419000E+01  3.85490540E+01
     295   1  3.18510100E+01  2.76356620E+01  3.86034710E+01
     298   1  3.33599190E+01  2.78317180E+01  2.31934560E+01
     301   1  3.38172950E+01  2.93748650E+01  2.30955970E+01
     304   1  3.36821540E+01  3.01331790E+01  2.43961890E+01
     307   1  3.48193290E+01  2.96008980E+01  2.53368550E+01
     310   1  3.47608750E+01  3.04566840E+01  2.66110070E+01
     313   1  3.07878140E+01  2.41979060E+01  3.71954920E+01
     317   1  3.53423880E+01  3.00533640E+01  2.79146300E+01
     321   1  3.28764170E+01  3.37148150E+01  1.99586980E+01
     324   1  3.15492950E+01  3.42917390E+01  3.58037780E+01
     327   1  3.09601650E+01  3.53472070E+01  3.48322690E+01
     330   1  3.01382090E+01  3.47883370E+01  3.35996180E+01
     333   1  2.98062250E+01  3.56560960E+01  3.24287450E+01
     336   1  2.86006940E+01  3.50230610E+01  3.16566660E+01
     339   1  2.81722180E+01  3.59359660E+01  3.03689030E+01
     342   1  2.70552380E+01  3.50872220E+01  2.96259200E+01
     345   1  3.36779970E+01  3.31144280E+01  2.10907510E+01
     349   1  2.56713290E+01  3.52490770E+01  3.02897190E+01
ITEM: TIMESTEP
           4
ITEM: NUMBER OF ATOMS
         110
ITEM: BOX BOUNDS pp pp pp
                0.000000               15.326206
                0.000000               15.326206
                0.000000               15.326206
ITEM: ATOMS id type xu yu zu 
       1   1  4.60754490E+01  3.43676100E+01  3.49967960E+01
       4   1  4.65446440E+01  4.82779350E+01  3.50356110E+01
       7   1  4.63846120E+01  4.78353810E+01  3.65286690E+01
      10   1  3.05509480E+01  4.63838300E+01  3.65967370E+01
      13   1  4.51101280E+01  4.62483740E+01  3.78703030E+01
      16   1  2.96806530E+01  4.47635400E+01  3.83831120E+01
      19   1  4.39388100E+01  4.40197770E+01  3.75746600E+01
      22   1  4.36160720E+01  4.26217030E+01  3.79017310E+01
      25   1  4.63496700E+01  3.50605050E+01  3.36884090E+01
      29   1  4.29614450E+01  4.19558940E+01  3.66981010E+01
      33   1  2.62640310E+01  3.53641040E+01  3.59501300E+01
      36   1  2.68550490E+01  3.63368600E+01  3.49202580E+01
      39   1  2.55997320E+01  3.70085250E+01  3.40463370E+01
      42   1  2.56634820E+01  3.65699000E+01  3.26202720E+01
      45   1  2.34874270E+01  2.57432170E+01  3.38609510E+01
      48   1  4.02246420E+01  2.48725780E+01  2.93370650E+01
      51   1  2.55536680E+01  2.46466630E+01  3.06195280E+01
      54   1  4.14882520E+01  2.58284860E+01  4.65212540E+01
      57   1  2.73076140E+01  3.43692400E+01  3.66385290E+01
      61   1  2.68431200E+01  2.56113520E+01  4.81228890E+01
      65   1  3.55191720E+01  4.71833970E+01  3.72859640E+01
      68   1  3.58966590E+01  4.61062140E+01  3.62967100E+01
      71   1  3.48294860E+01  4.51580910E+01  3.56840750E+01
      74   1  3.53890070E+01  2.90390250E+01  3.44323530E+01
      77   1  3.51077050E+01  2.98696240E+01  3.31638330E+01
      80   1  3.35747950E+01  3.02125530E+01  3.28806830E+01
      83   1  3.33266350E+01  3.06796820E+01  3.14575770E+01
      86   1  3.19244060E+01  3.12933930E+01  3.11570400E+01
      89   1  3.65991400E+01  4.81712950E+01  3.77823910E+01
      93   1  3.13628220E+01  3.09291900E+01  2.98192190E+01
      97   1  2.90104860E+01  3.35540470E+01  4.58253240E+01
     100   1  2.84957120E+01  3.50343740E+01  4.59678500E+01
     103   1  2.83619050E+01  3.57692930E+01  4.46729420E+01
     106   1  2.77917020E+01  3.72222950E+01  2.93268660E+01
     109   1  2.77247180E+01  3.79721460E+01  2.80610450E+01
     112   1  2.68922280E+01  3.74025050E+01  2.69162570E+01
     115   1  2.76176880E+01  3.76314450E+01  2.56187160E+01
     118   1  2.67567780E+01  3.72345840E+01  2.43827630E+01
     121   1  2.85053670E+01  3.27589600E+01  4.70148970E+01
     125   1  2.67621920E+01  3.83320070E+01  2.33655780E+01
     129   1  3.10770640E+01  4.04714350E+01  2.67580890E+01
     132   1  3.19195430E+01  4.09375370E+01  2.55483530E+01
     135   1  3.34243520E+01  4.11466750E+01  2.57039800E+01
     138   1  3.42407720E+01  3.98305330E+01  2.55354750E+01
     141   1  3.55408130E+01  3.97804290E+01  2.62525860E+01
     144   1  3.68851860E+01  3.96265420E+01  2.54622520E+01
     147   1  3.81402910E+01  3.98830710E+01  2.63157190E+01
     150   1  3.94561160E+01  3.99311130E+01  2.56200000E+01
     153   1  3.15184560E+01  4.09084320E+01  2.81494650E+01
     157   1  3.99556690E+01  4.13945590E+01  2.54104340E+01
     161   1  3.73892950E+01  2.47805890E+01  3.66808210E+01
     164   1  3.71749110E+01  2.44063340E+01  3.52529950E+01
     167   1  3.75607890E+01  2.55261360E+01  3.43227070E+01
     170   1  3.64909350E+01  2.04454710E+01  3.32175460E+01
     173   1  3.54603780E+01  3.63483840E+01  3.41347000E+01
     176   1  3.48825700E+01  3.51144130E+01  3.49575110E+01
     179   1  3.51196230E+01  3.38249760E+01  3.36720340E+01
     182   1  3.64808870E+01  3.42394480E+01  3.31730000E+01
     185   1  3.64479160E+01  2.60695890E+01  3.69946320E+01
     189   1  3.74270500E+01  3.34750060E+01  3.40949630E+01
     193   1  3.61054120E+01  2.56308650E+01  4.55599040E+01
     196   1  3.67256740E+01  2.68587010E+01  4.59939660E+01
     199   1  3.77789580E+01  2.76219150E+01  4.51936220E+01
     202   1  3.79966600E+01  2.90263270E+01  4.57327450E+01
     205   1  3.90478040E+01  2.99275580E+01  4.49916250E+01
     208   1  4.05436500E+01  2.94742950E+01  4.51406320E+01
     211   1  4.17696350E+01  4.57536760E+01  4.51549180E+01
     214   1  4.30838910E+01  4.50113680E+01  4.53320800E+01
     217   1  3.61884370E+01  2.46204410E+01  4.67412060E+01
     221   1  4.36214240E+01  4.42971380E+01  4.41567970E+01
     225   1  3.16467530E+01  4.22356670E+01  3.38156980E+01
     228   1  3.11468250E+01  2.56302170E+01  3.30429290E+01
     231   1  3.22291060E+01  4.01584060E+01  3.23599450E+01
     234   1  3.17816670E+01  3.90161510E+01  3.14032680E+01
     237   1  3.28873880E+01  3.83549380E+01  3.05387670E+01
     240   1  3.25014330E+01  3.70624710E+01  2.98170980E+01
     243   1  3.36067300E+01  3.64746430E+01  2.88519160E+01
     246   1  3.31773080E+01  3.50826040E+01  2.83077750E+01
     249   1  3.06279860E+01  2.78139190E+01  3.44719330E+01
     253   1  3.29828440E+01  3.39499350E+01  2.92341510E+01
     257   1  4.02520740E+01  2.95930730E+01  3.44765420E+01
     260   1  3.94744300E+01  2.98167620E+01  3.57985920E+01
     263   1  4.01870990E+01  3.05108890E+01  3.69650410E+01
     266   1  3.96277170E+01  2.99512070E+01  3.82948170E+01
     269   1  4.05076680E+01  3.00748390E+01  3.95775990E+01
     272   1  4.11853840E+01  3.14347590E+01  3.98269980E+01
     275   1  4.17662490E+01  3.17340910E+01  4.12146530E+01
     278   1  4.22408060E+01  3.31586500E+01  4.13310050E+01
     281   1  4.08485390E+01  3.08844330E+01  3.39561620E+01
     285   1  4.35272010E+01  3.34810320E+01  4.05919150E+01
     289   1  3.53522080E+01  2.90260700E+01  4.15801150E+01
     292   1  3.62118670E+01  3.00936840E+01  4.10273160E+01
     295   1  3.65299900E+01  3.11819380E+01  4.20977170E+01
     298   1  3.71730340E+01  3.24607010E+01  2.62668400E+01
     301   1  3.70480140E+01  3.35660080E+01  2.73067860E+01
     304   1  3.77655370E+01  3.48264850E+01  2.69240880E+01
     307   1  3.80214130E+01  3.55982240E+01  2.82178720E+01
     310   1  3.93439020E+01  3.53668580E+01  2.89366260E+01
     313   1  3.41810400E+01  2.92928290E+01  4.24725180E+01
     317   1  3.97837170E+01  3.38941570E+01  2.90777300E+01
     321   1  3.21888400E+01  3.33180980E+01  2.50320090E+01
     324   1  3.26417470E+01  3.45842240E+01  3.97413220E+01
     327   1  3.14927490E+01  3.56205300E+01  3.97687180E+01
     330   1  3.19727200E+01  3.69589010E+01  3.92181870E+01
     333   1  3.28781910E+01  3.69574400E+01  3.79285750E+01
     336   1  3.31526810E+01  3.83726430E+01  3.74143560E+01
     339   1  3.21362480E+01  3.88107170E+01  3.63596510E+01
     342   1  3.07381760E+01  3.91663860E+01  3.69089140E+01
     345   1  3.33291440E+01  3.25330790E+01  2.54838540E+01
     349   1  2.97614450E+01  3.79863770E+01  3.66346080E+01
ITEM: TIMESTEP
           5
ITEM: NUMBER OF ATOMS
         110
ITEM: BOX BOUNDS pp pp pp
                0.000000               15.326206
                0.000000               15.326206
                0.000000               15.326206
ITEM: ATOMS id type xu yu zu 
       1   1  4.03192400E+01  2.78439100E+01  4.35481580E+01
       4   1  4.14659230E+01  4.39540570E+01  4.29290550E+01
       7   1  4.17786240E+01  4.32817540E+01  4.15410430E+01
      10   1  2.74233460E+01  4.40641980E+01  4.05877660E+01
      13   1  4.37119390E+01  4.31939410E+01  3.97677620E+01
      16   1  2.79186020E+01  4.22055000E+01  3.87190740E+01
      19   1  4.30299850E+01  4.26440470E+01  3.72622440E+01
      22   1  4.27629580E+01  4.13316280E+01  3.64134650E+01
      25   1  3.97521690E+01  2.86421190E+01  4.47045100E+01
      29   1  4.40311710E+01  4.04086900E+01  3.63565420E+01
      33   1  2.85810960E+01  3.25881910E+01  3.25831310E+01
      36   1  2.79105870E+01  3.22781820E+01  3.12883070E+01
      39   1  2.83207220E+01  3.09553970E+01  3.07061740E+01
      42   1  2.94182100E+01  3.11540500E+01  2.96647270E+01
      45   1  3.08532970E+01  3.05647150E+01  3.00174180E+01
      48   1  4.74082090E+01  3.14183780E+01  2.94970460E+01
      51   1  3.20999940E+01  3.15564520E+01  2.79568460E+01
      54   1  4.83313460E+01  3.27600190E+01  4.30279440E+01
      57   1  2.82182250E+01  3.16375740E+01  3.37804940E+01
      61   1  3.33107300E+01  3.30835750E+01  4.15956190E+01
      65   1  4.01620050E+01  3.63477700E+01  3.40084660E+01
      68   1  3.95507790E+01  3.70019800E+01  3.27877210E+01
      71   1  3.80855750E+01  3.72420730E+01  3.28718170E+01
      74   1  3.73997890E+01  2.21464720E+01  3.42093370E+01
      77   1  3.76565070E+01  2.34941310E+01  3.48762340E+01
      80   1  3.67565210E+01  2.38105130E+01  3.60492080E+01
      83   1  3.73049150E+01  2.48271280E+01  3.70201010E+01
      86   1  3.73611140E+01  2.63122780E+01  3.65543890E+01
      89   1  4.17075310E+01  3.62510790E+01  3.39105890E+01
      93   1  3.80390750E+01  2.71833380E+01  3.75884710E+01