 LAMMPS Input for Backbone

          19 atoms
          36 bonds
          36 angles
           0 dihedrals
           0 impropers

           4 atom types
           1 bond types
           1 angle types
           0 dihedral types
           0 improper types

              0.0000             20.0000 xlo xhi
              0.0000             20.0000 ylo yhi
              0.0000             20.0000 zlo zhi

 Masses

   1           28.086000
   2           15.999000
   3           12.010000
   4            1.007900

 Atoms

           1         1   3 0.0              9.5097              9.8176              9.9170
           2         1   3 0.0             10.4743              9.9348              9.6956
           3         1   3 0.0              9.5531             10.2191              9.7518
           4         1   3 0.0              9.9110              9.7416             10.4598
           5         1   3 0.0              9.9112             10.1620             10.4717
           6         1   3 0.0             10.1500              9.6983              9.9996
           7         1   3 0.0              9.6349              9.9833              9.6777
           8         1   3 0.0              9.9775             10.2972              9.6586
           9         1   3 0.0              9.6699              9.7301              9.9847
          71         1   3 0.0             10.4360              9.8432              9.7692
          72         1   3 0.0              9.8359             10.0524             10.3670
          73         1   3 0.0             10.0712              9.8250              9.5410
          74         1   3 0.0             10.1760              9.9105             10.4401
          75         1   3 0.0             10.3279             10.3460              9.9671
          76         1   3 0.0             10.2629             10.1411             10.4739
          77         1   3 0.0             10.1944              9.9372             10.2286
          78         1   3 0.0             10.0241             10.0317             10.3546
          79         1   3 0.0             10.0210              9.9137              9.7350
          80         1   3 0.0              9.8330              9.9699              9.8625

 Bonds

           1           1           1           9
           2           1           1           2
           3           1           2           1
           4           1           2           3
           5           1           3           2
           6           1           3           4
           7           1           4           3
           8           1           4           5
           9           1           5           4
          10           1           5           6
          11           1           6           5
          12           1           6           7
          13           1           7           8
          14           1           7           6
          15           1           8          73
          16           1           8           7
          17           1           9           1
          18           1          71          72
          19           1          71          79
          20           1          72          73
          21           1          72          71
          22           1          73           8
          23           1          73          72
          24           1          73          74
          25           1          74          73
          26           1          74          75
          27           1          75          74
          28           1          75          76
          29           1          76          75
          30           1          76          77
          31           1          77          76
          32           1          77          78
          33           1          78          80
          34           1          78          77
          35           1          79          71
          36           1          80          78

 Angles

           1           1           1           2           3
           2           1           2           1           9
           3           1           2           3           4
           4           1           3           2           1
           5           1           3           4           5
           6           1           4           3           2
           7           1           4           5           6
           8           1           5           4           3
           9           1           5           6           7
          10           1           6           5           4
          11           1           6           7           8
          12           1           7           8          73
          13           1           7           6           5
          14           1           8          73          72
          15           1           8          73          74
          16           1           8           7           6
          17           1           9           1           2
          18           1          71          72          73
          19           1          72          73           8
          20           1          72          73          74
          21           1          72          71          79
          22           1          73           8           7
          23           1          73          72          71
          24           1          73          74          75
          25           1          74          73           8
          26           1          74          73          72
          27           1          74          75          76
          28           1          75          74          73
          29           1          75          76          77
          30           1          76          75          74
          31           1          76          77          78
          32           1          77          76          75
          33           1          77          78          80
          34           1          78          77          76
          35           1          79          71          72
          36           1          80          78          77
