ITEM: TIMESTEP
0
ITEM: NUMBER OF ATOMS
19
ITEM: BOX BOUNDS pp pp pp
0.0000000000000000e+00 2.0000000000000000e+01
0.0000000000000000e+00 2.0000000000000000e+01
0.0000000000000000e+00 2.0000000000000000e+01
ITEM: ATOMS id mol type xu yu zu
       1      1    3        9.509700000000e+00        9.817600000000e+00        9.917000000000e+00
       2      1    3        1.047430000000e+01        9.934800000000e+00        9.695600000000e+00
       3      1    3        9.553100000000e+00        1.021910000000e+01        9.751800000000e+00
       4      1    3        9.911000000000e+00        9.741600000000e+00        1.045980000000e+01
       5      1    3        9.911200000000e+00        1.016200000000e+01        1.047170000000e+01
       6      1    3        1.015000000000e+01        9.698300000000e+00        9.999600000000e+00
       7      1    3        9.634900000000e+00        9.983300000000e+00        9.677700000000e+00
       8      1    3        9.977500000000e+00        1.029720000000e+01        9.658600000000e+00
       9      1    3        9.669900000000e+00        9.730100000000e+00        9.984700000000e+00
      71      1    3        1.043600000000e+01        9.843200000000e+00        9.769200000000e+00
      72      1    3        9.835900000000e+00        1.005240000000e+01        1.036700000000e+01
      73      1    3        1.007120000000e+01        9.825000000000e+00        9.541000000000e+00
      74      1    3        1.017600000000e+01        9.910500000000e+00        1.044010000000e+01
      75      1    3        1.032790000000e+01        1.034600000000e+01        9.967100000000e+00
      76      1    3        1.026290000000e+01        1.014110000000e+01        1.047390000000e+01
      77      1    3        1.019440000000e+01        9.937200000000e+00        1.022860000000e+01
      78      1    3        1.002410000000e+01        1.003170000000e+01        1.035460000000e+01
      79      1    3        1.002100000000e+01        9.913700000000e+00        9.735000000000e+00
      80      1    3        9.833000000000e+00        9.969900000000e+00        9.862500000000e+00
ITEM: TIMESTEP
1
ITEM: NUMBER OF ATOMS
19
ITEM: BOX BOUNDS pp pp pp
0.0000000000000000e+00 2.0000000000000000e+01
0.0000000000000000e+00 2.0000000000000000e+01
0.0000000000000000e+00 2.0000000000000000e+01
ITEM: ATOMS id mol type xu yu zu
       1      1    3        9.509700000000e+00        9.817600000000e+00        9.917000000000e+00
       2      1    3        1.047430000000e+01        9.934800000000e+00        9.695600000000e+00
       3      1    3        9.553100000000e+00        1.021910000000e+01        9.751800000000e+00
       4      1    3        9.911000000000e+00        9.741600000000e+00        1.045980000000e+01
       5      1    3        9.911200000000e+00        1.016200000000e+01        1.047170000000e+01
       6      1    3        1.015000000000e+01        9.698300000000e+00        9.999600000000e+00
       7      1    3        9.634900000000e+00        9.983300000000e+00        9.677700000000e+00
       8      1    3        9.977500000000e+00        1.029720000000e+01        9.658600000000e+00
       9      1    3        9.669900000000e+00        9.730100000000e+00        9.984700000000e+00
      71      1    3        1.043600000000e+01        9.843200000000e+00        9.769200000000e+00
      72      1    3        9.835900000000e+00        1.005240000000e+01        1.036700000000e+01
      73      1    3        1.007120000000e+01        9.825000000000e+00        9.541000000000e+00
      74      1    3        1.017600000000e+01        9.910500000000e+00        1.044010000000e+01
      75      1    3        1.032790000000e+01        1.034600000000e+01        9.967100000000e+00
      76      1    3        1.026290000000e+01        1.014110000000e+01        1.047390000000e+01
      77      1    3        1.019440000000e+01        9.937200000000e+00        1.022860000000e+01
      78      1    3        1.002410000000e+01        1.003170000000e+01        1.035460000000e+01
      79      1    3        1.002100000000e+01        9.913700000000e+00        9.735000000000e+00
      80      1    3        9.833000000000e+00        9.969900000000e+00        9.862500000000e+00
ITEM: TIMESTEP
152
ITEM: NUMBER OF ATOMS
19
ITEM: BOX BOUNDS pp pp pp
0.0000000000000000e+00 2.0000000000000000e+01
0.0000000000000000e+00 2.0000000000000000e+01
0.0000000000000000e+00 2.0000000000000000e+01
ITEM: ATOMS id mol type xu yu zu
       1      1    3        1.086282574696e+01        9.022692024678e+00        1.008726552496e+01
       2      1    3        1.047430000000e+01        9.934800000000e+00        9.695600000000e+00
       3      1    3        9.553100000000e+00        1.021910000000e+01        9.751800000000e+00
       4      1    3        9.911000000000e+00        9.741600000000e+00        1.045980000000e+01
       5      1    3        9.911200000000e+00        1.016200000000e+01        1.047170000000e+01
       6      1    3        1.015000000000e+01        9.698300000000e+00        9.999600000000e+00
       7      1    3        9.634900000000e+00        9.983300000000e+00        9.677700000000e+00
       8      1    3        9.977500000000e+00        1.029720000000e+01        9.658600000000e+00
       9      1    3        9.669900000000e+00        9.730100000000e+00        9.984700000000e+00
      71      1    3        1.043600000000e+01        9.843200000000e+00        9.769200000000e+00
      72      1    3        9.835900000000e+00        1.005240000000e+01        1.036700000000e+01
      73      1    3        1.007120000000e+01        9.825000000000e+00        9.541000000000e+00
      74      1    3        1.017600000000e+01        9.910500000000e+00        1.044010000000e+01
      75      1    3        1.032790000000e+01        1.034600000000e+01        9.967100000000e+00
      76      1    3        1.026290000000e+01        1.014110000000e+01        1.047390000000e+01
      77      1    3        1.019440000000e+01        9.937200000000e+00        1.022860000000e+01
      78      1    3        1.002410000000e+01        1.003170000000e+01        1.035460000000e+01
      79      1    3        1.002100000000e+01        9.913700000000e+00        9.735000000000e+00
      80      1    3        9.833000000000e+00        9.969900000000e+00        9.862500000000e+00
ITEM: TIMESTEP
320
ITEM: NUMBER OF ATOMS
19
ITEM: BOX BOUNDS pp pp pp
0.0000000000000000e+00 2.0000000000000000e+01
0.0000000000000000e+00 2.0000000000000000e+01
0.0000000000000000e+00 2.0000000000000000e+01
ITEM: ATOMS id mol type xu yu zu
       1      1    3        8.979869088924e+00        9.343264403219e+00        8.555629544473e+00
       2      1    3        8.887849574942e+00        1.037394387441e+01        8.390412856741e+00
       3      1    3        9.553100000000e+00        1.021910000000e+01        9.751800000000e+00
       4      1    3        9.911000000000e+00        9.741600000000e+00        1.045980000000e+01
       5      1    3        9.911200000000e+00        1.016200000000e+01        1.047170000000e+01
       6      1    3        1.015000000000e+01        9.698300000000e+00        9.999600000000e+00
       7      1    3        9.634900000000e+00        9.983300000000e+00        9.677700000000e+00
       8      1    3        9.977500000000e+00        1.029720000000e+01        9.658600000000e+00
       9      1    3        9.669900000000e+00        9.730100000000e+00        9.984700000000e+00
      71      1    3        1.043600000000e+01        9.843200000000e+00        9.769200000000e+00
      72      1    3        9.835900000000e+00        1.005240000000e+01        1.036700000000e+01
      73      1    3        1.007120000000e+01        9.825000000000e+00        9.541000000000e+00
      74      1    3        1.017600000000e+01        9.910500000000e+00        1.044010000000e+01
      75      1    3        1.032790000000e+01        1.034600000000e+01        9.967100000000e+00
      76      1    3        1.026290000000e+01        1.014110000000e+01        1.047390000000e+01
      77      1    3        1.019440000000e+01        9.937200000000e+00        1.022860000000e+01
      78      1    3        1.002410000000e+01        1.003170000000e+01        1.035460000000e+01
      79      1    3        1.002100000000e+01        9.913700000000e+00        9.735000000000e+00
      80      1    3        9.833000000000e+00        9.969900000000e+00        9.862500000000e+00
ITEM: TIMESTEP
498
ITEM: NUMBER OF ATOMS
19
ITEM: BOX BOUNDS pp pp pp
0.0000000000000000e+00 2.0000000000000000e+01
0.0000000000000000e+00 2.0000000000000000e+01
0.0000000000000000e+00 2.0000000000000000e+01
ITEM: ATOMS id mol type xu yu zu
       1      1    3        9.246531806673e+00        8.341485119050e+00        9.290334103801e+00
       2      1    3        9.547925972111e+00        7.286039304802e+00        9.944407813216e+00
       3      1    3        1.002865827604e+01        8.159590494301e+00        1.079028293062e+01
       4      1    3        9.911000000000e+00        9.741600000000e+00        1.045980000000e+01
       5      1    3        9.911200000000e+00        1.016200000000e+01        1.047170000000e+01
       6      1    3        1.015000000000e+01        9.698300000000e+00        9.999600000000e+00
       7      1    3        9.634900000000e+00        9.983300000000e+00        9.677700000000e+00
       8      1    3        9.977500000000e+00        1.029720000000e+01        9.658600000000e+00
       9      1    3        9.669900000000e+00        9.730100000000e+00        9.984700000000e+00
      71      1    3        1.043600000000e+01        9.843200000000e+00        9.769200000000e+00
      72      1    3        9.835900000000e+00        1.005240000000e+01        1.036700000000e+01
      73      1    3        1.007120000000e+01        9.825000000000e+00        9.541000000000e+00
      74      1    3        1.017600000000e+01        9.910500000000e+00        1.044010000000e+01
      75      1    3        1.032790000000e+01        1.034600000000e+01        9.967100000000e+00
      76      1    3        1.026290000000e+01        1.014110000000e+01        1.047390000000e+01
      77      1    3        1.019440000000e+01        9.937200000000e+00        1.022860000000e+01
      78      1    3        1.002410000000e+01        1.003170000000e+01        1.035460000000e+01
      79      1    3        1.002100000000e+01        9.913700000000e+00        9.735000000000e+00
      80      1    3        9.833000000000e+00        9.969900000000e+00        9.862500000000e+00
ITEM: TIMESTEP
758
ITEM: NUMBER OF ATOMS
19
ITEM: BOX BOUNDS pp pp pp
0.0000000000000000e+00 2.0000000000000000e+01
0.0000000000000000e+00 2.0000000000000000e+01
0.0000000000000000e+00 2.0000000000000000e+01
ITEM: ATOMS id mol type xu yu zu
       1      1    3        8.147242847254e+00        9.501076220486e+00        1.039289003664e+01
       2      1    3        7.181909113348e+00        9.985023060814e+00        1.137534217378e+01
       3      1    3        7.790098967820e+00        1.086455869959e+01        1.212780046809e+01
       4      1    3        9.128905014942e+00        1.091633184872e+01        1.162097572866e+01
       5      1    3        9.911200000000e+00        1.016200000000e+01        1.047170000000e+01
       6      1    3        1.015000000000e+01        9.698300000000e+00        9.999600000000e+00
       7      1    3        9.634900000000e+00        9.983300000000e+00        9.677700000000e+00
       8      1    3        9.977500000000e+00        1.029720000000e+01        9.658600000000e+00
       9      1    3        9.669900000000e+00        9.730100000000e+00        9.984700000000e+00
      71      1    3        1.043600000000e+01        9.843200000000e+00        9.769200000000e+00
      72      1    3        9.835900000000e+00        1.005240000000e+01        1.036700000000e+01
      73      1    3        1.007120000000e+01        9.825000000000e+00        9.541000000000e+00
      74      1    3        1.017600000000e+01        9.910500000000e+00        1.044010000000e+01
      75      1    3        1.032790000000e+01        1.034600000000e+01        9.967100000000e+00
      76      1    3        1.026290000000e+01        1.014110000000e+01        1.047390000000e+01
      77      1    3        1.019440000000e+01        9.937200000000e+00        1.022860000000e+01
      78      1    3        1.002410000000e+01        1.003170000000e+01        1.035460000000e+01
      79      1    3        1.002100000000e+01        9.913700000000e+00        9.735000000000e+00
      80      1    3        9.833000000000e+00        9.969900000000e+00        9.862500000000e+00
ITEM: TIMESTEP
1000
ITEM: NUMBER OF ATOMS
19
ITEM: BOX BOUNDS pp pp pp
0.0000000000000000e+00 2.0000000000000000e+01
0.0000000000000000e+00 2.0000000000000000e+01
0.0000000000000000e+00 2.0000000000000000e+01
ITEM: ATOMS id mol type xu yu zu
       1      1    3        9.333884266835e+00        1.015258263161e+01        1.147139689978e+01
       2      1    3        9.763479360342e+00        1.027401900014e+01        1.291530468399e+01
       3      1    3        1.101084124383e+01        9.903206100756e+00        1.341039261080e+01
       4      1    3        1.181128349245e+01        9.418663692986e+00        1.239787278256e+01
       5      1    3        1.133242889510e+01        9.358394139781e+00        1.098280872859e+01
       6      1    3        1.015000000000e+01        9.698300000000e+00        9.999600000000e+00
       7      1    3        9.634900000000e+00        9.983300000000e+00        9.677700000000e+00
       8      1    3        9.977500000000e+00        1.029720000000e+01        9.658600000000e+00
       9      1    3        9.669900000000e+00        9.730100000000e+00        9.984700000000e+00
      71      1    3        1.043600000000e+01        9.843200000000e+00        9.769200000000e+00
      72      1    3        9.835900000000e+00        1.005240000000e+01        1.036700000000e+01
      73      1    3        1.007120000000e+01        9.825000000000e+00        9.541000000000e+00
      74      1    3        1.017600000000e+01        9.910500000000e+00        1.044010000000e+01
      75      1    3        1.032790000000e+01        1.034600000000e+01        9.967100000000e+00
      76      1    3        1.026290000000e+01        1.014110000000e+01        1.047390000000e+01
      77      1    3        1.019440000000e+01        9.937200000000e+00        1.022860000000e+01
      78      1    3        1.002410000000e+01        1.003170000000e+01        1.035460000000e+01
      79      1    3        1.002100000000e+01        9.913700000000e+00        9.735000000000e+00
      80      1    3        9.833000000000e+00        9.969900000000e+00        9.862500000000e+00
ITEM: TIMESTEP
1045
ITEM: NUMBER OF ATOMS
19
ITEM: BOX BOUNDS pp pp pp
0.0000000000000000e+00 2.0000000000000000e+01
0.0000000000000000e+00 2.0000000000000000e+01
0.0000000000000000e+00 2.0000000000000000e+01
ITEM: ATOMS id mol type xu yu zu
       1      1    3        9.307689059191e+00        1.005139170399e+01        1.149054456941e+01
       2      1    3        9.719519199302e+00        1.009768541411e+01        1.294432002702e+01
       3      1    3        1.097194929109e+01        9.733783785927e+00        1.343052618443e+01
       4      1    3        1.179475888252e+01        9.333595057267e+00        1.240037943302e+01
       5      1    3        1.133072971615e+01        9.342043059487e+00        1.097914930725e+01
       6      1    3        1.015000000000e+01        9.698300000000e+00        9.999600000000e+00
       7      1    3        9.634900000000e+00        9.983300000000e+00        9.677700000000e+00
       8      1    3        9.977500000000e+00        1.029720000000e+01        9.658600000000e+00
       9      1    3        9.669900000000e+00        9.730100000000e+00        9.984700000000e+00
      71      1    3        1.043600000000e+01        9.843200000000e+00        9.769200000000e+00
      72      1    3        9.835900000000e+00        1.005240000000e+01        1.036700000000e+01
      73      1    3        1.007120000000e+01        9.825000000000e+00        9.541000000000e+00
      74      1    3        1.017600000000e+01        9.910500000000e+00        1.044010000000e+01
      75      1    3        1.032790000000e+01        1.034600000000e+01        9.967100000000e+00
      76      1    3        1.026290000000e+01        1.014110000000e+01        1.047390000000e+01
      77      1    3        1.019440000000e+01        9.937200000000e+00        1.022860000000e+01
      78      1    3        1.002410000000e+01        1.003170000000e+01        1.035460000000e+01
      79      1    3        1.002100000000e+01        9.913700000000e+00        9.735000000000e+00
      80      1    3        9.833000000000e+00        9.969900000000e+00        9.862500000000e+00
ITEM: TIMESTEP
1274
ITEM: NUMBER OF ATOMS
19
ITEM: BOX BOUNDS pp pp pp
0.0000000000000000e+00 2.0000000000000000e+01
0.0000000000000000e+00 2.0000000000000000e+01
0.0000000000000000e+00 2.0000000000000000e+01
ITEM: ATOMS id mol type xu yu zu
       1      1    3        1.024368080884e+01        9.128517177884e+00        1.130908682842e+01
       2      1    3        1.018755054821e+01        8.174577182136e+00        1.247972109887e+01
       3      1    3        9.244619222860e+00        7.175982401897e+00        1.285693062971e+01
       4      1    3        8.129623486164e+00        6.977337544587e+00        1.204624999071e+01
       5      1    3        7.894080958917e+00        7.757636481134e+00        1.082803718764e+01
       6      1    3        8.551909083109e+00        8.890982442749e+00        1.001861425521e+01
       7      1    3        9.634900000000e+00        9.983300000000e+00        9.677700000000e+00
       8      1    3        9.977500000000e+00        1.029720000000e+01        9.658600000000e+00
       9      1    3        9.669900000000e+00        9.730100000000e+00        9.984700000000e+00
      71      1    3        1.043600000000e+01        9.843200000000e+00        9.769200000000e+00
      72      1    3        9.835900000000e+00        1.005240000000e+01        1.036700000000e+01
      73      1    3        1.007120000000e+01        9.825000000000e+00        9.541000000000e+00
      74      1    3        1.017600000000e+01        9.910500000000e+00        1.044010000000e+01
      75      1    3        1.032790000000e+01        1.034600000000e+01        9.967100000000e+00
      76      1    3        1.026290000000e+01        1.014110000000e+01        1.047390000000e+01
      77      1    3        1.019440000000e+01        9.937200000000e+00        1.022860000000e+01
      78      1    3        1.002410000000e+01        1.003170000000e+01        1.035460000000e+01
      79      1    3        1.002100000000e+01        9.913700000000e+00        9.735000000000e+00
      80      1    3        9.833000000000e+00        9.969900000000e+00        9.862500000000e+00
ITEM: TIMESTEP
1644
ITEM: NUMBER OF ATOMS
19
ITEM: BOX BOUNDS pp pp pp
0.0000000000000000e+00 2.0000000000000000e+01
0.0000000000000000e+00 2.0000000000000000e+01
0.0000000000000000e+00 2.0000000000000000e+01
ITEM: ATOMS id mol type xu yu zu
       1      1    3        8.419753766972e+00        9.352902421132e+00        1.080930700356e+01
       2      1    3        7.162043394082e+00        9.556392365757e+00        1.163192158655e+01
       3      1    3        6.258598934616e+00        1.056053793455e+01        1.221014207457e+01
       4      1    3        6.261294022776e+00        1.198795300273e+01        1.218305695616e+01
       5      1    3        7.202750677011e+00        1.286230314145e+01        1.154063444296e+01
       6      1    3        8.425017365518e+00        1.266211613987e+01        1.072247949424e+01
       7      1    3        9.384595628512e+00        1.166494801984e+01        1.007893517361e+01
       8      1    3        9.977500000000e+00        1.029720000000e+01        9.658600000000e+00
       9      1    3        9.669900000000e+00        9.730100000000e+00        9.984700000000e+00
      71      1    3        1.043600000000e+01        9.843200000000e+00        9.769200000000e+00
      72      1    3        9.835900000000e+00        1.005240000000e+01        1.036700000000e+01
      73      1    3        1.007120000000e+01        9.825000000000e+00        9.541000000000e+00
      74      1    3        1.017600000000e+01        9.910500000000e+00        1.044010000000e+01
      75      1    3        1.032790000000e+01        1.034600000000e+01        9.967100000000e+00
      76      1    3        1.026290000000e+01        1.014110000000e+01        1.047390000000e+01
      77      1    3        1.019440000000e+01        9.937200000000e+00        1.022860000000e+01
      78      1    3        1.002410000000e+01        1.003170000000e+01        1.035460000000e+01
      79      1    3        1.002100000000e+01        9.913700000000e+00        9.735000000000e+00
      80      1    3        9.833000000000e+00        9.969900000000e+00        9.862500000000e+00
ITEM: TIMESTEP
2000
ITEM: NUMBER OF ATOMS
19
ITEM: BOX BOUNDS pp pp pp
0.0000000000000000e+00 2.0000000000000000e+01
0.0000000000000000e+00 2.0000000000000000e+01
0.0000000000000000e+00 2.0000000000000000e+01
ITEM: ATOMS id mol type xu yu zu
       1      1    3        8.688638363073e+00        1.090403684674e+01        9.822644357013e+00
       2      1    3        7.848276495013e+00        1.201091342517e+01        9.199764604002e+00
       3      1    3        7.376147136661e+00        1.280873987195e+01        8.028930980820e+00
       4      1    3        7.540570227496e+00        1.293629980858e+01        6.581247772367e+00
       5      1    3        8.331247722856e+00        1.225899570699e+01        5.581458282661e+00
       6      1    3        9.305695685284e+00        1.116890676959e+01        5.610201478097e+00
       7      1    3        9.978831291004e+00        1.025095097173e+01        6.575980444712e+00
       8      1    3        1.020144967327e+01        9.796539521694e+00        8.010379924842e+00
       9      1    3        9.669900000000e+00        9.730100000000e+00        9.984700000000e+00
      71      1    3        1.043600000000e+01        9.843200000000e+00        9.769200000000e+00
      72      1    3        9.835900000000e+00        1.005240000000e+01        1.036700000000e+01
      73      1    3        1.007120000000e+01        9.825000000000e+00        9.541000000000e+00
      74      1    3        1.017600000000e+01        9.910500000000e+00        1.044010000000e+01
      75      1    3        1.032790000000e+01        1.034600000000e+01        9.967100000000e+00
      76      1    3        1.026290000000e+01        1.014110000000e+01        1.047390000000e+01
      77      1    3        1.019440000000e+01        9.937200000000e+00        1.022860000000e+01
      78      1    3        1.002410000000e+01        1.003170000000e+01        1.035460000000e+01
      79      1    3        1.002100000000e+01        9.913700000000e+00        9.735000000000e+00
      80      1    3        9.833000000000e+00        9.969900000000e+00        9.862500000000e+00
ITEM: TIMESTEP
2060
ITEM: NUMBER OF ATOMS
19
ITEM: BOX BOUNDS pp pp pp
0.0000000000000000e+00 2.0000000000000000e+01
0.0000000000000000e+00 2.0000000000000000e+01
0.0000000000000000e+00 2.0000000000000000e+01
ITEM: ATOMS id mol type xu yu zu
       1      1    3        8.678532426132e+00        1.088931541801e+01        9.776219661439e+00
       2      1    3        7.835210755120e+00        1.197233154252e+01        9.115271404262e+00
       3      1    3        7.368706661759e+00        1.274136930114e+01        7.920373533213e+00
       4      1    3        7.547450479677e+00        1.284445082700e+01        6.473434328456e+00
       5      1    3        8.358216009466e+00        1.215712334409e+01        5.496435943207e+00
       6      1    3        9.341732559214e+00        1.108115100938e+01        5.565122792216e+00
       7      1    3        1.000772066047e+01        1.019443349687e+01        6.564114838763e+00
       8      1    3        1.021270942556e+01        9.775206037557e+00        8.011329478885e+00
       9      1    3        9.669900000000e+00        9.730100000000e+00        9.984700000000e+00
      71      1    3        1.043600000000e+01        9.843200000000e+00        9.769200000000e+00
      72      1    3        9.835900000000e+00        1.005240000000e+01        1.036700000000e+01
      73      1    3        1.007120000000e+01        9.825000000000e+00        9.541000000000e+00
      74      1    3        1.017600000000e+01        9.910500000000e+00        1.044010000000e+01
      75      1    3        1.032790000000e+01        1.034600000000e+01        9.967100000000e+00
      76      1    3        1.026290000000e+01        1.014110000000e+01        1.047390000000e+01
      77      1    3        1.019440000000e+01        9.937200000000e+00        1.022860000000e+01
      78      1    3        1.002410000000e+01        1.003170000000e+01        1.035460000000e+01
      79      1    3        1.002100000000e+01        9.913700000000e+00        9.735000000000e+00
      80      1    3        9.833000000000e+00        9.969900000000e+00        9.862500000000e+00
ITEM: TIMESTEP
3000
ITEM: NUMBER OF ATOMS
19
ITEM: BOX BOUNDS pp pp pp
0.0000000000000000e+00 2.0000000000000000e+01
0.0000000000000000e+00 2.0000000000000000e+01
0.0000000000000000e+00 2.0000000000000000e+01
ITEM: ATOMS id mol type xu yu zu
       1      1    3        2.820307855451e+00        1.454749353393e+01        5.558743154604e+00
       2      1    3        3.952969043148e+00        1.379605943368e+01        4.906748860145e+00
       3      1    3        5.163302583628e+00        1.299717393423e+01        4.536976364605e+00
       4      1    3        6.424252708519e+00        1.216880304504e+01        4.497403976898e+00
       5      1    3        7.641889480626e+00        1.137280449224e+01        4.831224285789e+00
       6      1    3        8.741066870406e+00        1.065861325460e+01        5.567414834146e+00
       7      1    3        9.582122179063e+00        1.011745131815e+01        6.670030720558e+00
       8      1    3        1.005672188713e+01        9.819639201154e+00        8.053972004993e+00
       9      1    3        1.813170125561e+00        1.521986546347e+01        6.443179261118e+00
      71      1    3        1.043600000000e+01        9.843200000000e+00        9.769200000000e+00
      72      1    3        9.835900000000e+00        1.005240000000e+01        1.036700000000e+01
      73      1    3        1.007120000000e+01        9.825000000000e+00        9.541000000000e+00
      74      1    3        1.017600000000e+01        9.910500000000e+00        1.044010000000e+01
      75      1    3        1.032790000000e+01        1.034600000000e+01        9.967100000000e+00
      76      1    3        1.026290000000e+01        1.014110000000e+01        1.047390000000e+01
      77      1    3        1.019440000000e+01        9.937200000000e+00        1.022860000000e+01
      78      1    3        1.002410000000e+01        1.003170000000e+01        1.035460000000e+01
      79      1    3        1.002100000000e+01        9.913700000000e+00        9.735000000000e+00
      80      1    3        9.833000000000e+00        9.969900000000e+00        9.862500000000e+00
ITEM: TIMESTEP
3356
ITEM: NUMBER OF ATOMS
19
ITEM: BOX BOUNDS pp pp pp
0.0000000000000000e+00 2.0000000000000000e+01
0.0000000000000000e+00 2.0000000000000000e+01
0.0000000000000000e+00 2.0000000000000000e+01
ITEM: ATOMS id mol type xu yu zu
       1      1    3        3.305731063075e+00        1.420911851362e+01        3.468441902381e+00
       2      1    3        4.543485855234e+00        1.338610176902e+01        3.250930706192e+00
       3      1    3        5.793739458937e+00        1.255553759891e+01        3.316877512346e+00
       4      1    3        7.007596804751e+00        1.175143506486e+01        3.685900254024e+00
       5      1    3        8.123828889228e+00        1.101629257154e+01        4.368870440557e+00
       6      1    3        9.068175826283e+00        1.040145255655e+01        5.357822145747e+00
       7      1    3        9.757315420966e+00        9.964182255195e+00        6.612824433082e+00
       8      1    3        1.011094231724e+01        9.759168053276e+00        8.050509450912e+00
       9      1    3        2.120593793231e+00        1.499671667494e+01        3.947276813143e+00
      71      1    3        1.043600000000e+01        9.843200000000e+00        9.769200000000e+00
      72      1    3        9.835900000000e+00        1.005240000000e+01        1.036700000000e+01
      73      1    3        1.007120000000e+01        9.825000000000e+00        9.541000000000e+00
      74      1    3        1.017600000000e+01        9.910500000000e+00        1.044010000000e+01
      75      1    3        1.032790000000e+01        1.034600000000e+01        9.967100000000e+00
      76      1    3        1.026290000000e+01        1.014110000000e+01        1.047390000000e+01
      77      1    3        1.019440000000e+01        9.937200000000e+00        1.022860000000e+01
      78      1    3        1.002410000000e+01        1.003170000000e+01        1.035460000000e+01
      79      1    3        1.002100000000e+01        9.913700000000e+00        9.735000000000e+00
      80      1    3        9.833000000000e+00        9.969900000000e+00        9.862500000000e+00
ITEM: TIMESTEP
3478
ITEM: NUMBER OF ATOMS
19
ITEM: BOX BOUNDS pp pp pp
0.0000000000000000e+00 2.0000000000000000e+01
0.0000000000000000e+00 2.0000000000000000e+01
0.0000000000000000e+00 2.0000000000000000e+01
ITEM: ATOMS id mol type xu yu zu