ITEM: TIMESTEP
           1
ITEM: NUMBER OF ATOMS
         109
ITEM: BOX BOUNDS pp pp pp
                0.000000               15.326206
                0.000000               15.326206
                0.000000               15.326206
ITEM: ATOMS id type xu yu zu 
       1   1  4.68897200E+01  3.44082490E+01  3.90356740E+01
       4   1  4.67470150E+01  5.05271320E+01  3.77364680E+01
       7   1  4.71351060E+01  5.19294230E+01  3.75388340E+01
      10   1  3.13267890E+01  5.25255570E+01  3.62748280E+01
      13   1  5.44610680E+01  5.03232400E+01  5.28060660E+01
      16   1  2.81402560E+01  3.73631280E+01  3.43877170E+01
      19   1  4.21768990E+01  3.70670020E+01  3.41529110E+01
      22   1  4.10954470E+01  3.80409190E+01  3.41987560E+01
      25   1  4.66559990E+01  3.52805860E+01  4.02576500E+01
      29   1  4.01469480E+01  3.76654610E+01  3.53333090E+01
      33   1  3.15614590E+01  3.75546570E+01  3.13323000E+01
      36   1  3.11321520E+01  3.72352560E+01  2.98941590E+01
      39   1  3.16424700E+01  3.82738270E+01  2.88702060E+01
      42   1  3.20833940E+01  3.76213610E+01  2.74526080E+01
      45   1  3.31068970E+01  3.84743820E+01  2.66722820E+01
      48   1  4.78967330E+01  3.97000530E+01  2.57400310E+01
      51   1  3.34543340E+01  3.97399140E+01  2.45622110E+01
      54   1  5.01211880E+01  4.07265750E+01  4.03636450E+01
      57   1  3.17449270E+01  3.63679010E+01  3.23595600E+01
      61   1  3.57683220E+01  4.08598930E+01  3.92752530E+01
      65   1  3.37184420E+01  3.03898840E+01  4.04900480E+01
      68   1  3.45203250E+01  2.94388140E+01  3.95735530E+01
      71   1  3.47886770E+01  3.02319540E+01  3.81894720E+01
      74   1  3.53098820E+01  1.37587970E+01  3.71935360E+01
      77   1  3.54511410E+01  1.41087290E+01  3.57046030E+01
      80   1  3.64180660E+01  1.53569850E+01  3.54549320E+01
      83   1  3.57331790E+01  1.65109830E+01  3.45962660E+01
      86   1  3.45146780E+01  1.73854430E+01  3.52846000E+01
      89   1  3.35141060E+01  2.97432450E+01  4.19113100E+01
      93   1  3.51189420E+01  1.85568350E+01  3.60198180E+01
      97   1  2.58920210E+01  4.43497750E+01  4.32484590E+01
     100   1  2.62423070E+01  4.35865410E+01  4.19279090E+01
     103   1  2.75255120E+01  4.39493920E+01  4.11427240E+01
     106   1  2.86692590E+01  4.29643710E+01  2.59969740E+01
     109   1  2.98963110E+01  4.36387960E+01  2.55640630E+01
     112   1  3.00477640E+01  4.39489390E+01  2.39794950E+01
     115   1  3.10537160E+01  4.30038010E+01  2.32407010E+01
     118   1  3.01677940E+01  4.20989790E+01  2.22388530E+01
     121   1  2.46987030E+01  4.35509890E+01  4.41376680E+01
     125   1  3.09152840E+01  4.10280050E+01  2.14633350E+01
     129   1  3.60015260E+01  3.82010110E+01  3.20102210E+01
     132   1  3.49862180E+01  3.91552260E+01  3.27057720E+01
     135   1  3.45302020E+01  3.92178140E+01  3.41591600E+01
     138   1  3.40024280E+01  4.06394610E+01  3.45019000E+01
     141   1  3.26180160E+01  4.11899220E+01  3.38434230E+01
     144   1  3.25648070E+01  4.26996370E+01  3.39893800E+01
     147   1  3.14286050E+01  4.32815220E+01  3.31312330E+01
     150   1  3.13135190E+01  4.49103810E+01  3.30593680E+01
     153   1  3.56430990E+01  3.67249920E+01  3.20243520E+01
     157   1  3.25097190E+01  4.56057730E+01  3.24201200E+01
     161   1  4.29709750E+01  2.66351430E+01  3.19034000E+01
     164   1  4.20529960E+01  2.54287400E+01  3.15690600E+01
     167   1  4.29408840E+01  2.44599540E+01  3.07171910E+01
     170   1  4.31637930E+01  2.49551630E+01  2.92678070E+01
     173   1  4.31199980E+01  3.91761550E+01  2.81929770E+01
     176   1  4.37919410E+01  3.95284230E+01  2.68742330E+01
     179   1  4.41140100E+01  3.84379380E+01  2.58060650E+01
     182   1  4.29782520E+01  3.81391120E+01  2.48542020E+01
     185   1  4.22802820E+01  2.80411010E+01  3.20753920E+01
     189   1  4.29946510E+01  3.86545900E+01  2.34916310E+01
     193   1  3.93858800E+01  2.36159770E+01  4.18161120E+01
     196   1  3.87291700E+01  2.42268430E+01  4.31319290E+01
     199   1  3.76604100E+01  2.51364270E+01  4.27121140E+01
     202   1  3.70265250E+01  2.56826080E+01  4.41330190E+01
     205   1  3.57529350E+01  2.65003900E+01  4.39734930E+01
     208   1  3.52663910E+01  2.68764600E+01  4.53879820E+01
     211   1  3.39459220E+01  4.29902080E+01  4.52893830E+01
     214   1  3.25931720E+01  4.22526890E+01  4.50589470E+01
     217   1  3.84159180E+01  2.29540700E+01  4.07890900E+01
     221   1  3.14131580E+01  4.31261810E+01  4.46817490E+01
     225   1  3.69257690E+01  3.79045820E+01  5.24554790E+01
     228   1  2.26752370E+01  1.48243040E+01  3.98381320E+01
     231   1  2.23626740E+01  2.94567230E+01  4.09169140E+01
     234   1  2.55748640E+01  4.21509020E+01  3.79564190E+01
     237   1  2.45692720E+01  4.12675600E+01  3.73156160E+01
     240   1  2.34818700E+01  4.16249810E+01  3.62899280E+01
     243   1  2.40480060E+01  4.20583890E+01  3.49535010E+01
     246   1  2.29936000E+01  4.25408450E+01  3.40138400E+01
     253   1  2.33503580E+01  4.25286770E+01  3.25521120E+01
     257   1  3.72481320E+01  3.12273100E+01  3.04263020E+01
     260   1  3.62896990E+01  3.16716070E+01  2.92907710E+01
     263   1  3.48881370E+01  3.25649880E+01  2.96999670E+01
     266   1  3.45506750E+01  3.38933450E+01  2.88237270E+01
     269   1  3.55103830E+01  3.48764500E+01  2.84845030E+01
     272   1  3.54739070E+01  3.56796030E+01  2.71617210E+01
     275   1  3.54652740E+01  3.48574970E+01  2.58815090E+01
     278   1  3.68809750E+01  3.46232930E+01  2.53606530E+01
     281   1  3.66483390E+01  3.01726500E+01  3.13266960E+01
     285   1  3.70931550E+01  3.32327950E+01  2.45529560E+01
     289   1  3.00520420E+01  3.15472530E+01  4.34057920E+01
     292   1  3.00752330E+01  3.21709630E+01  4.48255620E+01
     295   1  2.90235650E+01  3.14548230E+01  4.57089300E+01
     298   1  2.76289250E+01  3.20453640E+01  2.98363360E+01
     301   1  2.63294980E+01  3.16972510E+01  3.05001430E+01
     304   1  2.61895960E+01  3.24006960E+01  3.19091010E+01
     307   1  2.47967020E+01  3.25018690E+01  3.26399510E+01
     310   1  2.43567040E+01  3.11997810E+01  3.32618400E+01
     313   1  3.06389610E+01  3.24028380E+01  4.22555210E+01
     317   1  2.50268630E+01  3.07972220E+01  3.45108170E+01
     321   1  4.32623270E+01  3.20546720E+01  2.14905330E+01
     324   1  4.30806200E+01  3.13485110E+01  3.81242630E+01
     327   1  4.34633150E+01  3.21713100E+01  3.93695990E+01
     330   1  4.24592700E+01  3.21725220E+01  4.05849240E+01
     333   1  4.20445350E+01  3.36645280E+01  4.09945980E+01
     336   1  4.11731830E+01  3.38843270E+01  4.21918980E+01
     339   1  4.14890850E+01  3.52257540E+01  4.27893230E+01
     342   1  4.09709940E+01  3.53538760E+01  4.40869820E+01
     345   1  4.45997030E+01  3.27121000E+01  2.10957990E+01
     349   1  4.11229600E+01  3.67158300E+01  4.48071150E+01
ITEM: TIMESTEP
           2
ITEM: NUMBER OF ATOMS
         109
ITEM: BOX BOUNDS pp pp pp
                0.000000               15.326206
                0.000000               15.326206
                0.000000               15.326206
ITEM: ATOMS id type xu yu zu 
       1   1  4.43302470E+01  3.42619860E+01  4.12696940E+01
       4   1  4.32754870E+01  4.85351520E+01  4.06800810E+01
       7   1  4.39836020E+01  4.78277090E+01  3.95366720E+01
      10   1  2.79712980E+01  4.64405660E+01  3.91657800E+01
      13   1  4.38483300E+01  4.53133490E+01  4.00876580E+01
      16   1  2.79175680E+01  4.38965260E+01  3.96506940E+01
      19   1  4.22340990E+01  4.33239030E+01  4.06498010E+01
      22   1  4.09220390E+01  4.42340090E+01  4.07191240E+01
      25   1  4.38843050E+01  3.56493850E+01  4.15876550E+01
      29   1  3.96951620E+01  4.35530290E+01  4.12461060E+01
      33   1  2.35163660E+01  3.02033000E+01  3.69907140E+01
      36   1  2.40486120E+01  2.87517990E+01  3.69944770E+01
      39   1  2.37882870E+01  2.77962110E+01  3.58832830E+01
      42   1  2.35129680E+01  2.83917460E+01  3.45687690E+01
      45   1  2.30064800E+01  2.76588070E+01  3.34846630E+01
      48   1  3.77556320E+01  2.82550410E+01  3.23036280E+01
      51   1  2.34974510E+01  2.87651360E+01  3.12317280E+01
      54   1  3.84586650E+01  2.84072710E+01  4.49054790E+01
      57   1  2.21473830E+01  3.03479770E+01  3.78613600E+01
      61   1  2.27665780E+01  2.70104300E+01  4.46564310E+01
      65   1  3.42966090E+01  5.17490530E+01  4.12696690E+01
      68   1  3.37192780E+01  5.22347560E+01  3.99227010E+01
      71   1  3.36418340E+01  5.12608940E+01  3.87697990E+01
      74   1  3.24515040E+01  3.62833120E+01  3.78067630E+01
      77   1  3.11334770E+01  3.54906530E+01  3.81233940E+01
      80   1  2.98560570E+01  3.58062640E+01  3.73229720E+01
      83   1  3.01865040E+01  3.57422170E+01  3.57909850E+01
      86   1  3.02347360E+01  3.70229520E+01  3.50248520E+01
      89   1  3.33078030E+01  5.08925270E+01  4.21068850E+01
      93   1  3.13962900E+01  3.81452200E+01  3.51958490E+01
      97   1  2.50669530E+01  3.41907740E+01  4.38590420E+01
     100   1  2.53305000E+01  3.47015520E+01  4.53778960E+01
     103   1  2.65252260E+01  3.56390830E+01  4.55160450E+01
     106   1  2.72833400E+01  3.53213850E+01  3.15059240E+01
     109   1  2.80518070E+01  3.39550620E+01  3.17040730E+01
     112   1  2.86783280E+01  3.34216810E+01  3.03983590E+01
     115   1  3.00051280E+01  3.41300290E+01  2.99511070E+01
     118   1  3.11758470E+01  3.43204750E+01  3.10005660E+01
     121   1  2.53543770E+01  3.27060690E+01  4.35478490E+01
     125   1  3.15462340E+01  3.29941110E+01  3.17343940E+01
     129   1  3.05495760E+01  4.43022970E+01  3.49820000E+01
     132   1  3.02446320E+01  4.35700310E+01  3.37162470E+01
     135   1  3.13747010E+01  4.24898050E+01  3.31627160E+01
     138   1  3.09739230E+01  4.21986190E+01  3.17243440E+01
     141   1  3.21184090E+01  4.16321290E+01  3.07487900E+01
     144   1  3.20033860E+01  4.00935760E+01  3.03845780E+01
     147   1  3.18154030E+01  3.89425880E+01  3.13712660E+01
     150   1  3.30791420E+01  3.79548450E+01  3.15645750E+01
     153   1  3.08995220E+01  4.31254040E+01  3.60260770E+01
     157   1  3.40325400E+01  3.83370110E+01  3.26556550E+01
     161   1  4.26381320E+01  2.49140170E+01  3.09535920E+01
     164   1  4.17728140E+01  2.44470930E+01  3.21362800E+01
     167   1  4.29238490E+01  2.39216680E+01  3.31011030E+01
     170   1  4.23915740E+01  2.36360610E+01  3.44915080E+01
     173   1  4.11125890E+01  3.80962140E+01  3.45589170E+01
     176   1  4.07056390E+01  3.77354640E+01  3.59954560E+01
     179   1  4.04739910E+01  3.62943240E+01  3.60255100E+01
     182   1  4.03650230E+01  3.57155350E+01  3.73998370E+01
     185   1  4.17883300E+01  2.55215310E+01  2.98635390E+01
     189   1  3.97030360E+01  3.43923440E+01  3.72995980E+01
     193   1  3.41936350E+01  2.61670190E+01  3.52471010E+01
     196   1  3.45601820E+01  2.55443290E+01  3.65781460E+01
     199   1  3.60308360E+01  2.53744880E+01  3.66129040E+01
     202   1  3.66175440E+01  2.47383430E+01  3.78467820E+01
     205   1  3.81903370E+01  2.48416440E+01  3.80805160E+01
     208   1  3.85427480E+01  2.44223060E+01  3.95069750E+01
     211   1  3.88304910E+01  3.82416610E+01  3.95082400E+01
     214   1  3.90597850E+01  3.75386670E+01  4.10233190E+01
     217   1  3.48199530E+01  2.75166420E+01  3.50113300E+01
     221   1  4.04239860E+01  3.78749010E+01  4.16863950E+01
     225   1  3.57460480E+01  4.21993480E+01  2.58427400E+01
     228   1  3.47749840E+01  2.57111160E+01  2.58314860E+01
     231   1  3.33703700E+01  4.10068270E+01  2.66125110E+01
     234   1  3.21380740E+01  4.15935960E+01  2.59550710E+01
     237   1  3.09434210E+01  4.04960410E+01  2.58131070E+01
     240   1  3.10492700E+01  3.95169620E+01  2.46689170E+01
     243   1  2.99004880E+01  3.94239530E+01  2.35794020E+01
     246   1  2.84721360E+01  3.94486820E+01  2.41974060E+01
     249   1  3.50563820E+01  2.80486920E+01  2.49777640E+01
     253   1  2.75593230E+01  3.89930540E+01  2.31441110E+01
     257   1  4.72060830E+01  3.10624150E+01  2.78032240E+01
     260   1  4.57764540E+01  3.05209310E+01  2.78019160E+01
     263   1  4.54077910E+01  2.94968090E+01  2.89683650E+01
     266   1  4.41890430E+01  2.86415240E+01  2.89317190E+01
     269   1  4.28929700E+01  2.94626620E+01  2.92285550E+01
     272   1  4.25820880E+01  3.01608950E+01  3.06164930E+01
     275   1  4.26234840E+01  2.92806860E+01  3.19215670E+01
     278   1  4.24811650E+01  3.01687110E+01  3.31970180E+01
     281   1  4.73166620E+01  3.23518830E+01  2.69388130E+01
     285   1  4.22598840E+01  2.92754120E+01  3.44354230E+01
     289   1  3.63240440E+01  3.36325060E+01  4.67591850E+01
     292   1  3.69348490E+01  3.22328150E+01  4.68561100E+01
     295   1  3.78773770E+01  3.19153290E+01  4.79997350E+01
     298   1  3.72712000E+01  3.23022840E+01  3.41122110E+01
     301   1  3.56269350E+01  3.22236790E+01  3.42664240E+01
     304   1  3.52827280E+01  3.25643780E+01  3.57119950E+01
     307   1  3.36462640E+01  3.26955480E+01  3.59485500E+01
     310   1  3.30279650E+01  3.16905680E+01  3.70098840E+01
     313   1  3.51964990E+01  3.37741030E+01  4.58055840E+01
     317   1  3.33014690E+01  3.20254800E+01  3.84712430E+01
     321   1  3.78857270E+01  3.19371180E+01  2.65101790E+01
     324   1  3.76882500E+01  3.29650260E+01  4.09489260E+01
     327   1  3.66640390E+01  4.00737570E+01  3.53683490E+01
     333   1  3.64771690E+01  3.90399150E+01  2.87809740E+01
     336   1  3.75937000E+01  3.87836410E+01  2.97853110E+01
     339   1  3.73335980E+01  3.77201970E+01  3.07924800E+01
     342   1  3.83685160E+01  3.77225250E+01  3.20016680E+01
     345   1  3.66791380E+01  3.12351290E+01  2.72523470E+01
     349   1  3.81363570E+01  3.63291700E+01  3.27931940E+01
ITEM: TIMESTEP
           3
ITEM: NUMBER OF ATOMS
         110
ITEM: BOX BOUNDS pp pp pp
                0.000000               15.326206
                0.000000               15.326206
                0.000000               15.326206
ITEM: ATOMS id type xu yu zu 
       1   1  3.88441970E+01  3.38293090E+01  4.31967440E+01
       4   1  3.86007730E+01  4.82437100E+01  4.18430360E+01
       7   1  3.93676820E+01  4.87828330E+01  4.06011220E+01
      10   1  2.55380570E+01  4.87288960E+01  4.07809650E+01
      13   1  4.16633880E+01  4.89525340E+01  3.94321880E+01
      16   1  2.63120460E+01  4.75353710E+01  3.86851090E+01
      19   1  4.19762160E+01  4.75711470E+01  3.71408220E+01
      22   1  4.13459230E+01  4.63863730E+01  3.63293430E+01
      25   1  4.00391020E+01  3.32762070E+01  4.39489860E+01
      29   1  4.22266350E+01  4.57362110E+01  3.53924930E+01
      33   1  3.05394770E+01  3.17583920E+01  2.22756450E+01
      36   1  3.08017510E+01  3.18741700E+01  2.38334400E+01
      39   1  3.02428470E+01  3.29984520E+01  2.44940360E+01
      42   1  3.07746710E+01  3.32169310E+01  2.59071190E+01
      45   1  3.01338230E+01  3.45996120E+01  2.64164700E+01
      48   1  4.58996600E+01  3.53880770E+01  2.75561860E+01
      51   1  3.08819150E+01  3.45715140E+01  2.88062250E+01
      54   1  4.64758300E+01  3.52867960E+01  4.54302550E+01
      57   1  3.15487800E+01  3.22288010E+01  2.13349810E+01
      61   1  3.13235320E+01  3.45917570E+01  4.67283060E+01
      65   1  3.44141490E+01  4.64457000E+01  2.95038310E+01
      68   1  3.49925370E+01  4.61582530E+01  2.81017170E+01
      71   1  3.43824140E+01  4.48955020E+01  2.76679170E+01
      74   1  3.29784640E+01  2.96861010E+01  2.71546120E+01
      77   1  3.21306520E+01  2.83008000E+01  2.72242280E+01
      80   1  3.20089120E+01  2.75772910E+01  2.85520990E+01
      83   1  3.15084450E+01  2.61632720E+01  2.82791990E+01
      86   1  3.12259270E+01  2.53839350E+01  2.94854430E+01
      89   1  3.44380870E+01  4.79035430E+01  2.98387910E+01
      93   1  3.25500060E+01  2.51436230E+01  3.04204140E+01
      97   1  3.40052370E+01  3.67686060E+01  3.98312940E+01
     100   1  3.50280190E+01  3.55720600E+01  4.02696050E+01
     103   1  3.61040160E+01  3.58727050E+01  4.12395800E+01
     106   1  3.57836090E+01  3.61409520E+01  2.74089480E+01
     109   1  3.57241070E+01  3.75903350E+01  2.76824370E+01
     112   1  3.52919360E+01  3.77631230E+01  2.91127300E+01
     115   1  3.65386050E+01  3.75810220E+01  3.02099140E+01
     118   1  3.34881250E+01  2.91569560E+01  4.75967520E+01
     121   1  3.28460590E+01  3.63931470E+01  3.89535070E+01
     125   1  1.08747440E+01  3.82832550E+01  3.85558790E+01
     129   1  2.76099990E+01  3.04248970E+01  2.73239910E+01
     132   1  2.85811190E+01  2.97345370E+01  2.82067860E+01
     135   1  2.81053020E+01  2.94930360E+01  2.96908570E+01
     138   1  2.87287070E+01  2.82495890E+01  3.03405940E+01
     141   1  2.90086090E+01  2.83654290E+01  3.17808210E+01
     144   1  2.95803840E+01  2.98232260E+01  3.22042910E+01
     147   1  3.11558250E+01  3.01340890E+01  3.19550890E+01
     150   1  3.20051620E+01  2.92905840E+01  3.29286730E+01
     153   1  2.63324160E+01  2.97462950E+01  2.71293000E+01
     157   1  3.18734060E+01  3.00638350E+01  3.41273450E+01
     161   1  4.14942690E+01  2.63225060E+01  3.43023420E+01
     164   1  4.08942700E+01  2.48001770E+01  3.40811350E+01
     167   1  4.12050590E+01  2.40688320E+01  3.27792500E+01
     170   1  4.10984640E+01  2.25389260E+01  3.28321650E+01
     173   1  4.18572100E+01  3.72964280E+01  3.16509350E+01
     176   1  4.19179620E+01  3.57708730E+01  3.17824470E+01
     179   1  4.29882360E+01  3.53641750E+01  3.26934780E+01
     182   1  4.31642460E+01  3.39071030E+01  3.25579380E+01
     185   1  4.15146790E+01  2.67312290E+01  3.57912670E+01
     189   1  4.19769330E+01  3.30971710E+01  3.32041520E+01
     193   1  3.43232610E+01  2.83560390E+01  4.87465460E+01
     196   1  3.48626280E+01  2.68601940E+01  4.82558990E+01
     199   1  3.57299270E+01  2.69825460E+01  4.70192100E+01
     202   1  3.66383430E+01  2.59353280E+01  4.64451140E+01
     205   1  3.80242820E+01  2.65788730E+01  4.60323300E+01
     208   1  3.79440740E+01  2.77782170E+01  4.49546510E+01
     211   1  3.79841690E+01  4.45164910E+01  4.54951220E+01
     214   1  3.94241920E+01  4.48010650E+01  4.59511880E+01
     217   1  3.55188860E+01  2.92394440E+01  4.91235600E+01
     221   1  3.95050500E+01  4.55659540E+01  4.72638400E+01
     225   1  2.92128410E+01  3.66982480E+01  3.75216650E+01
     228   1  2.93791940E+01  2.28829680E+01  3.76335330E+01
     231   1  3.08117560E+01  3.85954820E+01  3.72723140E+01
     234   1  3.10352330E+01  4.00013010E+01  3.72536490E+01
     237   1  3.07351560E+01  4.08703230E+01  3.85890830E+01
     240   1  2.94505210E+01  4.17743680E+01  3.87081150E+01
     243   1  2.90171290E+01  4.23871750E+01  4.00423440E+01
     246   1  2.76944950E+01  4.31865970E+01  3.98915370E+01
     249   1  2.84606610E+01  2.09138850E+01  3.62538310E+01
     253   1  2.77220290E+01  4.45012560E+01  3.92863610E+01
     257   1  4.39210390E+01  3.86551890E+01  4.25787800E+01
     260   1  4.33457760E+01  4.00124220E+01  4.29026630E+01
     263   1  4.20554880E+01  4.02936300E+01  4.37629640E+01
     266   1  4.08558720E+01  4.00028980E+01  4.28906380E+01
     269   1  4.06681040E+01  4.07164160E+01  4.15999680E+01
     272   1  3.92223440E+01  4.10112510E+01  4.12298970E+01
     275   1  3.91004580E+01  4.15573050E+01  3.98108060E+01
     278   1  3.88013170E+01  4.30034730E+01  3.97037240E+01
     281   1  4.42368160E+01  3.84090700E+01  4.11310400E+01
     285   1  3.89306110E+01  4.34662600E+01  3.82143970E+01
     289   1  3.57514390E+01  2.52406460E+01  4.07805460E+01
     292   1  3.47179010E+01  2.55501300E+01  3.97455090E+01
     295   1  3.46906960E+01  2.72360570E+01  3.93673960E+01
     298   1  3.40498520E+01  2.75095940E+01  2.26467550E+01
     301   1  3.42662680E+01  2.89033340E+01  2.21417020E+01
     304   1  3.54686190E+01  2.96286860E+01  2.26706200E+01
     307   1  3.55192840E+01  3.11802320E+01  2.25916990E+01
     310   1  3.60193120E+01  3.19538270E+01  2.13411910E+01
     313   1  3.53135390E+01  2.56465290E+01  4.21624740E+01
     317   1  3.51269680E+01  3.22350000E+01  2.01454380E+01
     321   1  3.94528750E+01  3.56851990E+01  1.98582910E+01
     324   1  3.89312310E+01  3.70984340E+01  3.58503990E+01
     327   1  3.77660570E+01  3.77224600E+01  3.51101590E+01
     330   1  3.65268790E+01  3.83061490E+01  3.59917330E+01
     333   1  3.51260990E+01  3.82042340E+01  3.54525880E+01
     336   1  3.49123440E+01  3.86011490E+01  3.40453370E+01
     339   1  3.40985270E+01  3.75301390E+01  3.33569510E+01
     342   1  3.27563000E+01  3.70398470E+01  3.40939680E+01
     345   1  3.87396140E+01  3.44514620E+01  2.04550440E+01
     349   1  3.30367960E+01  3.56861880E+01  3.48208390E+01
ITEM: TIMESTEP
           4
ITEM: NUMBER OF ATOMS
         110
ITEM: BOX BOUNDS pp pp pp
                0.000000               15.326206
                0.000000               15.326206
                0.000000               15.326206
ITEM: ATOMS id type xu yu zu 
       1   1  3.70929140E+01  3.14476230E+01  4.26577940E+01
       4   1  3.80576280E+01  4.66792870E+01  4.14841870E+01
       7   1  3.89893080E+01  4.78770520E+01  4.14221180E+01
      10   1  2.47862030E+01  4.76005410E+01  4.03102870E+01
      13   1  4.14061380E+01  4.68591060E+01  4.08490080E+01
      16   1  2.73411110E+01  4.70299320E+01  3.97981700E+01
      19   1  4.36458700E+01  4.59062140E+01  4.03102010E+01
      22   1  4.31744680E+01  4.44594920E+01  4.00385620E+01
      25   1  3.78603510E+01  3.09789290E+01  4.39425750E+01
      29   1  4.41377690E+01  4.36877790E+01  3.90956610E+01
      33   1  3.57289840E+01  3.36322250E+01  3.15807020E+01
      36   1  3.61400920E+01  3.22099650E+01  3.19710210E+01
      39   1  3.54656280E+01  3.08209850E+01  3.18600500E+01
      42   1  3.61078730E+01  2.99348260E+01  3.28643740E+01
      45   1  3.58563800E+01  3.02994860E+01  3.43549220E+01
      48   1  5.16742490E+01  2.91118350E+01  3.54214790E+01
      51   1  3.56363990E+01  2.92304030E+01  3.67497960E+01
      54   1  5.10398550E+01  2.69995690E+01  5.30386330E+01
      57   1  3.59069340E+01  3.41349880E+01  3.01302940E+01
      61   1  1.21996820E+01  3.17930670E+01  5.14780920E+01
      65   1  4.91523790E+01  3.07959270E+01  2.44389740E+01
      68   1  4.82326610E+01  3.20415660E+01  2.46685920E+01
      71   1  4.79000510E+01  3.22924390E+01  2.61319200E+01
      74   1  4.64591250E+01  1.67699740E+01  2.63726890E+01
      77   1  4.59734650E+01  1.68144600E+01  2.78145270E+01
      80   1  4.44816940E+01  1.69825380E+01  2.82087140E+01
      83   1  4.40238910E+01  1.83722660E+01  2.87407630E+01
      86   1  4.24823680E+01  1.86252980E+01  2.88044720E+01
      89   1  5.06107510E+01  3.13309630E+01  2.44483340E+01
      93   1  4.17729130E+01  1.78902960E+01  2.99190480E+01
      97   1  3.19777820E+01  3.03296530E+01  5.13890410E+01
     100   1  3.14014200E+01  2.90819970E+01  5.06746310E+01
     103   1  3.02380740E+01  2.93612250E+01  4.97977840E+01
     106   1  3.04886230E+01  2.97136910E+01  3.30359060E+01
     109   1  2.95461670E+01  3.07504420E+01  3.23461940E+01
     112   1  2.96309400E+01  3.22279460E+01  3.29214460E+01
     115   1  3.06985810E+01  3.28792400E+01  3.20945980E+01
     118   1  3.09173900E+01  3.43633820E+01  3.24020590E+01
     121   1  3.23950550E+01  3.15149280E+01  5.06001210E+01
     125   1  3.08970450E+01  3.45520270E+01  3.39779670E+01
     129   1  3.12544900E+01  4.02157790E+01  3.21398380E+01
     132   1  3.07703510E+01  3.96489880E+01  3.34362280E+01
     135   1  3.01189020E+01  4.07537830E+01  3.41549630E+01
     138   1  2.93437930E+01  4.06262750E+01  3.55034250E+01
     141   1  2.89019680E+01  3.91470240E+01  3.54746380E+01
     144   1  2.80652720E+01  3.86381710E+01  3.67166650E+01
     147   1  2.75648530E+01  3.72038430E+01  3.66904770E+01
     150   1  2.87206490E+01  3.63067670E+01  3.73425390E+01
     153   1  3.05276900E+01  3.97990430E+01  3.08179640E+01
     157   1  2.81664440E+01  3.49244480E+01  3.75629140E+01
     161   1  3.86094680E+01  2.61588210E+01  2.72436150E+01
     164   1  3.76481730E+01  2.55499190E+01  2.83973720E+01
     167   1  3.83098120E+01  2.51147630E+01  2.96533660E+01
     170   1  3.92161330E+01  2.38637900E+01  2.98329070E+01
     173   1  3.86928830E+01  3.78546630E+01  2.93995920E+01
     176   1  3.89121820E+01  3.77463600E+01  2.77196850E+01
     179   1  4.01234430E+01  3.67416700E+01  2.75575440E+01
     182   1  3.97821250E+01  3.58648220E+01  2.63481870E+01
     185   1  3.95711800E+01  2.70806490E+01  2.78633530E+01
     189   1  4.09321400E+01  3.59070030E+01  2.53830940E+01
     193   1  4.08223200E+01  2.62246230E+01  3.85862340E+01
     196   1  3.94910490E+01  2.55256500E+01  3.90526620E+01
     199   1  3.93744110E+01  2.40510860E+01  3.86492330E+01
     202   1  3.96138530E+01  2.38649720E+01  3.72033570E+01
     205   1  3.87320140E+01  2.46047140E+01  3.60346120E+01
     208   1  3.78445240E+01  2.35063730E+01  3.53580720E+01
     211   1  3.67338240E+01  3.93860040E+01  3.44051030E+01
     214   1  3.63278960E+01  3.84049410E+01  3.31625350E+01
     217   1  4.06908750E+01  2.72070250E+01  3.74633520E+01
     221   1  3.54860630E+01  3.92565760E+01  3.22076640E+01
     225   1  2.43439970E+01  4.68982030E+01  3.38733610E+01
     228   1  2.45861340E+01  3.02621300E+01  3.45146390E+01
     231   1  2.50423510E+01  4.45470780E+01  3.33791780E+01
     234   1  2.53757120E+01  4.31322820E+01  3.37416700E+01
     237   1  2.59723360E+01  4.23540960E+01  3.26378050E+01
     240   1  2.73960940E+01  4.29475990E+01  3.23505080E+01
     243   1  2.77403920E+01  4.25090370E+01  3.10177090E+01
     246   1  2.72200230E+01  4.35118870E+01  2.99665380E+01
     249   1  2.50613350E+01  3.26171360E+01  3.36844130E+01
     253   1  2.79784470E+01  4.36166690E+01  2.85679930E+01
     257   1  4.18892130E+01  3.75457300E+01  3.24525160E+01
     260   1  4.05189440E+01  3.71945240E+01  3.32212970E+01
     263   1  5.15754350E+01  4.35310620E+01  5.29716070E+01
     266   1  3.71117200E+01  3.35135880E+01  3.64119420E+01
     269   1  3.73216250E+01  3.45529050E+01  3.76160960E+01
     272   1  3.61943070E+01  3.55316190E+01  3.79373050E+01
     275   1  3.48243480E+01  3.49533870E+01  3.83879340E+01
     278   1  3.37523440E+01  3.44665940E+01  3.72819340E+01
     281   1  4.21629880E+01  3.65944040E+01  3.13221710E+01
     285   1  3.37736060E+01  3.51895390E+01  3.59268200E+01
     289   1  2.80563480E+01  4.01470910E+01  4.12738970E+01
     292   1  2.91579330E+01  3.92671380E+01  4.20429070E+01
     295   1  2.93415970E+01  3.78596070E+01  4.16028940E+01
     298   1  3.01281070E+01  3.70281170E+01  2.72195040E+01
     301   1  3.10860780E+01  3.60245480E+01  2.65846880E+01
     304   1  3.24778080E+01  3.66392220E+01  2.61924520E+01
     307   1  3.34066810E+01  3.72230740E+01  2.73592030E+01
     310   1  3.49454670E+01  3.69974680E+01  2.72071640E+01
     313   1  2.65486620E+01  3.97657910E+01  4.14929190E+01
     317   1  3.56339970E+01  3.76640720E+01  2.60269430E+01
     321   1  3.29359620E+01  4.22535660E+01  3.05284820E+01
     324   1  3.18585350E+01  4.27217160E+01  4.47746940E+01
     327   1  3.22699880E+01  4.21873450E+01  4.32973550E+01
     330   1  3.27663030E+01  4.33530970E+01  4.22168370E+01
     333   1  3.32851600E+01  4.26331400E+01  4.10063060E+01
     336   1  3.24050690E+01  4.28408820E+01  3.96760740E+01
     339   1  3.23170210E+01  4.16429760E+01  3.87247850E+01
     342   1  3.19760960E+01  4.03186410E+01  3.94862200E+01
     345   1  3.43862400E+01  4.20691380E+01  3.02714020E+01
     349   1  3.21310490E+01  3.89698810E+01  3.87562780E+01
ITEM: TIMESTEP
           5
ITEM: NUMBER OF ATOMS
         110
ITEM: BOX BOUNDS pp pp pp
                0.000000               15.326206
                0.000000               15.326206
                0.000000               15.326206
ITEM: ATOMS id type xu yu zu 
       1   1  3.48255610E+01  3.24190420E+01  4.44485060E+01
       4   1  3.59623540E+01  4.65702840E+01  4.44261760E+01
       7   1  3.72541860E+01  4.70980320E+01  4.35967070E+01
      10   1  2.33780020E+01  4.70855600E+01  4.40102900E+01
      13   1  3.91634880E+01  4.77240980E+01  4.53496160E+01
      16   1  2.44138390E+01  4.90320930E+01  4.49569480E+01
      19   1  4.11899950E+01  4.93710020E+01  4.45256050E+01
      22   1  4.17086390E+01  4.90938270E+01  4.31110870E+01
      25   1  3.36954560E+01  3.20962560E+01  4.54233060E+01
      29   1  4.32867040E+01  4.90461130E+01  4.31644910E+01
      33   1  3.02780850E+01  3.41913740E+01  3.45004120E+01
      36   1  3.14025870E+01  3.30065510E+01  3.43286520E+01
      39   1  3.08745930E+01  3.15318540E+01  3.44151980E+01
      42   1  3.01513190E+01  3.09038240E+01  3.31350480E+01
      45   1  3.07761260E+01  3.13597010E+01  3.17643590E+01
      48   1  4.55362430E+01  3.05935430E+01  3.05220720E+01
      51   1  2.86656190E+01  3.07744580E+01  3.01672220E+01
      54   1  4.36698100E+01  3.04579520E+01  4.39808300E+01
      57   1  3.07391860E+01  3.56656390E+01  3.44062990E+01
      61   1  2.75959950E+01  2.91224200E+01  4.39557180E+01
      65   1  3.89495620E+01  4.20816830E+01  3.64776170E+01
      68   1  4.00413150E+01  4.10800090E+01  3.68283620E+01
      71   1  3.97783710E+01  3.97122850E+01  3.74407400E+01
      74   1  4.08006600E+01  2.37240840E+01  3.84218740E+01
      77   1  4.02763460E+01  2.24246590E+01  3.88672880E+01
      80   1  4.06818310E+01  2.17071230E+01  3.99355410E+01
      83   1  4.00432080E+01  3.14861110E+01  4.61358060E+01
      86   1  4.95473940E+01  3.56530940E+01  2.02417940E+01
      89   1  3.95550170E+01  4.36126070E+01  3.61206330E+01
      93   1  3.47324090E+01  2.29118790E+01  4.02023440E+01
      97   1  2.95291960E+01  3.74814290E+01  3.94269270E+01
     100   1  2.99859100E+01  3.64837430E+01  4.05922230E+01