LAMMPS (29 Oct 2020)
# Force Field for Quick Backbone Opt

newton          on
dimension	3
boundary        p p p
units           real

neighbor        2.0 bin

atom_style      full
bond_style      harmonic
angle_style     harmonic
dihedral_style  none
improper_style  none


#-------------------------------------------------------------
# GET DATA FILE
#-------------------------------------------------------------

read_data	data.pdms
Reading data file ...
  orthogonal box = (0.0000000 0.0000000 0.0000000) to (20.000000 20.000000 20.000000)
  1 by 1 by 1 MPI processor grid
  reading atoms ...
  19 atoms
  scanning bonds ...
  3 = max bonds/atom
  scanning angles ...
  6 = max angles/atom
  reading bonds ...
  36 bonds
  reading angles ...
  36 angles
Finding 1-2 1-3 1-4 neighbors ...
  special bond factors lj:    0.0      0.0      0.0     
  special bond factors coul:  0.0      0.0      0.0     
     6 = max # of 1-2 neighbors
    18 = max # of 1-3 neighbors
    84 = max # of 1-4 neighbors
     9 = max # of special neighbors
  special bonds CPU = 0.000 seconds
  read_data CPU = 0.003 seconds

#-------------------------------------------------------------
# SPECIFY FORCE FIELD
#-------------------------------------------------------------

#pair_style 	lj/cut 3.367386145
#special_bonds	lj 0.0 0.0 1.0
#pair_coeff     	* * 0.1 3.0

bond_coeff  	1   400.0   1.5

angle_coeff	1   200.0  170.0

#-------------------------------------------------------------
# DUMP SETUP
#-------------------------------------------------------------

thermo_style 	custom step time etotal pe ke temp press pxx pyy pzz pxy pxz pyz lx ly lz
thermo 		1000

dump		trajectory	all custom 1000 dump.lammpstrj id mol type xu yu zu
dump_modify	trajectory	first yes sort id format line "%8d %6d %4d %25.12e %25.12e %25.12e"


#-------------------------------------------------------------
# SIMULATION SETUP
#-------------------------------------------------------------

min_style	fire

variable	a loop 300

label		loop
group		holdgroup id >= $a
group		holdgroup id >= 1
19 atoms in group holdgroup
fix		2 holdgroup setforce 0.0 0.0 0.0
minimize 	1.0e-6 1.0e-8 1000 10000
WARNING: Using 'neigh_modify every 1 delay 0 check yes' setting during minimization (../min.cpp:187)
  Parameters for fire: 
    dmax delaystep dtgrow dtshrink alpha0 alphashrink tmax tmin    integrator halfstepback 
     0.1        20    1.1      0.5   0.25        0.99   10 0.02 eulerimplicit          yes 
WARNING: No pairwise cutoff or binsize set. Atom sorting therefore disabled. (../atom.cpp:2115)
Per MPI rank memory allocation (min/avg/max) = 8.866 | 8.866 | 8.866 Mbytes
Step Time TotEng PotEng KinEng Temp Press Pxx Pyy Pzz Pxy Pxz Pyz Lx Ly Lz 
       0            0    42528.303    42528.303            0            0    39793.133     39227.96    38951.764    41199.677     20919.72    17367.962   -33812.692           20           20           20 
       1            1    42528.303    42528.303            0            0    39793.133     39227.96    38951.764    41199.677     20919.72    17367.962   -33812.692           20           20           20 
Loop time of 8.6489e-05 on 1 procs for 1 steps with 19 atoms

57.8% CPU use with 1 MPI tasks x no OpenMP threads

Minimization stats:
  Stopping criterion = force tolerance
  Energy initial, next-to-last, final = 
      42528.3032512013   42528.3032512013   42528.3032512013
  Force two-norm initial, final = 0.0000000 0.0000000
  Force max component initial, final = 0.0000000 0.0000000
  Final line search alpha, max atom move = 0.0000000 0.0000000
  Iterations, force evaluations = 1 2

MPI task timing breakdown:
Section |  min time  |  avg time  |  max time  |%varavg| %total
---------------------------------------------------------------
Pair    | 0          | 0          | 0          |   0.0 |  0.00
Bond    | 1.321e-05  | 1.321e-05  | 1.321e-05  |   0.0 | 15.27
Neigh   | 0          | 0          | 0          |   0.0 |  0.00
Comm    | 7.5e-07    | 7.5e-07    | 7.5e-07    |   0.0 |  0.87
Output  | 0          | 0          | 0          |   0.0 |  0.00
Modify  | 8.3e-07    | 8.3e-07    | 8.3e-07    |   0.0 |  0.96
Other   |            | 7.17e-05   |            |       | 82.90

Nlocal:        19.0000 ave          19 max          19 min
Histogram: 1 0 0 0 0 0 0 0 0 0
Nghost:        0.00000 ave           0 max           0 min
Histogram: 1 0 0 0 0 0 0 0 0 0
Neighs:        0.00000 ave           0 max           0 min
Histogram: 1 0 0 0 0 0 0 0 0 0

Total # of neighbors = 0
Ave neighs/atom = 0.0000000
Ave special neighs/atom = 5.6842105
Neighbor list builds = 0
Dangerous builds = 0
fix		10 all nvt temp 300.0 300.0 10.0
run		100
Per MPI rank memory allocation (min/avg/max) = 8.866 | 8.866 | 8.866 Mbytes
Step Time TotEng PotEng KinEng Temp Press Pxx Pyy Pzz Pxy Pxz Pyz Lx Ly Lz 
       1            0    42528.303    42528.303            0            0    39793.133     39227.96    38951.764    41199.677     20919.72    17367.962   -33812.692           20           20           20 
     101          100    42528.303    42528.303            0            0    39793.133     39227.96    38951.764    41199.677     20919.72    17367.962   -33812.692           20           20           20 
Loop time of 0.000510325 on 1 procs for 100 steps with 19 atoms

Performance: 16930.387 ns/day, 0.001 hours/ns, 195953.559 timesteps/s
57.0% CPU use with 1 MPI tasks x no OpenMP threads

MPI task timing breakdown:
Section |  min time  |  avg time  |  max time  |%varavg| %total
---------------------------------------------------------------
Pair    | 0          | 0          | 0          |   0.0 |  0.00
Bond    | 0.00035011 | 0.00035011 | 0.00035011 |   0.0 | 68.60
Neigh   | 0          | 0          | 0          |   0.0 |  0.00
Comm    | 1.358e-05  | 1.358e-05  | 1.358e-05  |   0.0 |  2.66
Output  | 1.312e-05  | 1.312e-05  | 1.312e-05  |   0.0 |  2.57
Modify  | 0.00010557 | 0.00010557 | 0.00010557 |   0.0 | 20.69
Other   |            | 2.795e-05  |            |       |  5.48

Nlocal:        19.0000 ave          19 max          19 min
Histogram: 1 0 0 0 0 0 0 0 0 0
Nghost:        0.00000 ave           0 max           0 min
Histogram: 1 0 0 0 0 0 0 0 0 0
Neighs:        0.00000 ave           0 max           0 min
Histogram: 1 0 0 0 0 0 0 0 0 0

Total # of neighbors = 0
Ave neighs/atom = 0.0000000
Ave special neighs/atom = 5.6842105
Neighbor list builds = 0
Dangerous builds = 0
unfix		10
unfix		2
group		holdgroup clear
next		a
jump 		in.pdms loop
group		holdgroup id >= $a
group		holdgroup id >= 2
18 atoms in group holdgroup
fix		2 holdgroup setforce 0.0 0.0 0.0
minimize 	1.0e-6 1.0e-8 1000 10000
WARNING: Using 'neigh_modify every 1 delay 0 check yes' setting during minimization (../min.cpp:187)
  Parameters for fire: 
    dmax delaystep dtgrow dtshrink alpha0 alphashrink tmax tmin    integrator halfstepback 
     0.1        20    1.1      0.5   0.25        0.99   10 0.02 eulerimplicit          yes 
Per MPI rank memory allocation (min/avg/max) = 8.866 | 8.866 | 8.866 Mbytes
Step Time TotEng PotEng KinEng Temp Press Pxx Pyy Pzz Pxy Pxz Pyz Lx Ly Lz 
     101          100    42528.303    42528.303            0            0    39793.133     39227.96    38951.764    41199.677     20919.72    17367.962   -33812.692           20           20           20 
     152       128.05    39104.061    39104.046  0.015659125   0.29185065    39148.041    51957.323    29734.874    35751.926    18977.474    17112.536   -27191.076           20           20           20 
Loop time of 0.000348326 on 1 procs for 51 steps with 19 atoms

57.1% CPU use with 1 MPI tasks x no OpenMP threads

Minimization stats:
  Stopping criterion = energy tolerance
  Energy initial, next-to-last, final = 
      42528.3032512013   39104.0465439345   39104.0456345526
  Force two-norm initial, final = 5814.2449 1.4748517
  Force max component initial, final = 4064.7052 1.2313230
  Final line search alpha, max atom move = 0.0000000 0.0000000
  Iterations, force evaluations = 51 54

MPI task timing breakdown:
Section |  min time  |  avg time  |  max time  |%varavg| %total
---------------------------------------------------------------
Pair    | 0          | 0          | 0          |   0.0 |  0.00
Bond    | 0.0002102  | 0.0002102  | 0.0002102  |   0.0 | 60.35
Neigh   | 2.2e-06    | 2.2e-06    | 2.2e-06    |   0.0 |  0.63
Comm    | 8.64e-06   | 8.64e-06   | 8.64e-06   |   0.0 |  2.48
Output  | 0          | 0          | 0          |   0.0 |  0.00
Modify  | 8.5e-06    | 8.5e-06    | 8.5e-06    |   0.0 |  2.44
Other   |            | 0.0001188  |            |       | 34.10

Nlocal:        19.0000 ave          19 max          19 min
Histogram: 1 0 0 0 0 0 0 0 0 0
Nghost:        0.00000 ave           0 max           0 min
Histogram: 1 0 0 0 0 0 0 0 0 0
Neighs:        0.00000 ave           0 max           0 min
Histogram: 1 0 0 0 0 0 0 0 0 0

Total # of neighbors = 0
Ave neighs/atom = 0.0000000
Ave special neighs/atom = 5.6842105
Neighbor list builds = 1
Dangerous builds = 0
fix		10 all nvt temp 300.0 300.0 10.0
run		100
Per MPI rank memory allocation (min/avg/max) = 8.866 | 8.866 | 8.866 Mbytes
Step Time TotEng PotEng KinEng Temp Press Pxx Pyy Pzz Pxy Pxz Pyz Lx Ly Lz 
     152          100    39104.061    39104.046  0.015659125   0.29185065    39148.041    51957.323    29734.874    35751.926    18977.474    17112.536   -27191.076           20           20           20 
     252          200    39111.043    39109.964    1.0790517    20.111083    39123.928    52002.914    29688.134    35680.736    18913.353    17104.309   -27202.396           20           20           20 
Loop time of 0.000503665 on 1 procs for 100 steps with 19 atoms

Performance: 17154.259 ns/day, 0.001 hours/ns, 198544.668 timesteps/s
57.2% CPU use with 1 MPI tasks x no OpenMP threads

MPI task timing breakdown:
Section |  min time  |  avg time  |  max time  |%varavg| %total
---------------------------------------------------------------
Pair    | 0          | 0          | 0          |   0.0 |  0.00
Bond    | 0.00035101 | 0.00035101 | 0.00035101 |   0.0 | 69.69
Neigh   | 0          | 0          | 0          |   0.0 |  0.00
Comm    | 1.363e-05  | 1.363e-05  | 1.363e-05  |   0.0 |  2.71
Output  | 1.407e-05  | 1.407e-05  | 1.407e-05  |   0.0 |  2.79
Modify  | 9.682e-05  | 9.682e-05  | 9.682e-05  |   0.0 | 19.22
Other   |            | 2.814e-05  |            |       |  5.59

Nlocal:        19.0000 ave          19 max          19 min
Histogram: 1 0 0 0 0 0 0 0 0 0
Nghost:        0.00000 ave           0 max           0 min
Histogram: 1 0 0 0 0 0 0 0 0 0
Neighs:        0.00000 ave           0 max           0 min
Histogram: 1 0 0 0 0 0 0 0 0 0

Total # of neighbors = 0
Ave neighs/atom = 0.0000000
Ave special neighs/atom = 5.6842105
Neighbor list builds = 0
Dangerous builds = 0
unfix		10
unfix		2
group		holdgroup clear
next		a
jump 		in.pdms loop
group		holdgroup id >= $a
group		holdgroup id >= 3
17 atoms in group holdgroup
fix		2 holdgroup setforce 0.0 0.0 0.0
minimize 	1.0e-6 1.0e-8 1000 10000
WARNING: Using 'neigh_modify every 1 delay 0 check yes' setting during minimization (../min.cpp:187)
  Parameters for fire: 
    dmax delaystep dtgrow dtshrink alpha0 alphashrink tmax tmin    integrator halfstepback 
     0.1        20    1.1      0.5   0.25        0.99   10 0.02 eulerimplicit          yes 
Per MPI rank memory allocation (min/avg/max) = 8.866 | 8.866 | 8.866 Mbytes
Step Time TotEng PotEng KinEng Temp Press Pxx Pyy Pzz Pxy Pxz Pyz Lx Ly Lz 
     252          200    39109.964    39109.964            0            0    39117.762    52002.375    29687.567    35663.345    18912.801    17101.248   -27205.535           20           20           20 
     320    285.92599    37135.303    37135.251  0.052009771   0.96934446    34988.345    44936.123    30589.344    29439.568    13543.572    28384.117   -25939.808           20           20           20 
Loop time of 0.000445375 on 1 procs for 68 steps with 19 atoms

100.1% CPU use with 1 MPI tasks x no OpenMP threads

Minimization stats:
  Stopping criterion = energy tolerance
  Energy initial, next-to-last, final = 
      39109.9638509887   37135.2560677628   37135.2514563132
  Force two-norm initial, final = 2503.9993 1.8629705
  Force max component initial, final = 1842.6281 1.3743841
  Final line search alpha, max atom move = 0.0000000 0.0000000
  Iterations, force evaluations = 68 71

MPI task timing breakdown:
Section |  min time  |  avg time  |  max time  |%varavg| %total
---------------------------------------------------------------
Pair    | 0          | 0          | 0          |   0.0 |  0.00
Bond    | 0.000271   | 0.000271   | 0.000271   |   0.0 | 60.85
Neigh   | 6.05e-06   | 6.05e-06   | 6.05e-06   |   0.0 |  1.36
Comm    | 1.23e-05   | 1.23e-05   | 1.23e-05   |   0.0 |  2.76
Output  | 0          | 0          | 0          |   0.0 |  0.00
Modify  | 1.077e-05  | 1.077e-05  | 1.077e-05  |   0.0 |  2.42
Other   |            | 0.0001453  |            |       | 32.61

Nlocal:        19.0000 ave          19 max          19 min
Histogram: 1 0 0 0 0 0 0 0 0 0
Nghost:        0.00000 ave           0 max           0 min
Histogram: 1 0 0 0 0 0 0 0 0 0
Neighs:        0.00000 ave           0 max           0 min
Histogram: 1 0 0 0 0 0 0 0 0 0

Total # of neighbors = 0
Ave neighs/atom = 0.0000000
Ave special neighs/atom = 5.6842105
Neighbor list builds = 3
Dangerous builds = 0
fix		10 all nvt temp 300.0 300.0 10.0
run		100
Per MPI rank memory allocation (min/avg/max) = 8.866 | 8.866 | 8.866 Mbytes
Step Time TotEng PotEng KinEng Temp Press Pxx Pyy Pzz Pxy Pxz Pyz Lx Ly Lz 
     320          200    37135.303    37135.251  0.052009771   0.96934446    34988.345    44936.123    30589.344    29439.568    13543.572    28384.117   -25939.808           20           20           20 
     420          300    37153.255    37152.809   0.44590145    8.3105943    34950.568    44841.995     30652.02    29357.689    13736.738     28548.07   -25882.318           20           20           20 
Loop time of 0.000496924 on 1 procs for 100 steps with 19 atoms

Performance: 17386.965 ns/day, 0.001 hours/ns, 201238.016 timesteps/s
100.0% CPU use with 1 MPI tasks x no OpenMP threads

MPI task timing breakdown:
Section |  min time  |  avg time  |  max time  |%varavg| %total
---------------------------------------------------------------
Pair    | 0          | 0          | 0          |   0.0 |  0.00
Bond    | 0.00034596 | 0.00034596 | 0.00034596 |   0.0 | 69.62
Neigh   | 0          | 0          | 0          |   0.0 |  0.00
Comm    | 1.356e-05  | 1.356e-05  | 1.356e-05  |   0.0 |  2.73
Output  | 1.326e-05  | 1.326e-05  | 1.326e-05  |   0.0 |  2.67
Modify  | 9.562e-05  | 9.562e-05  | 9.562e-05  |   0.0 | 19.24
Other   |            | 2.852e-05  |            |       |  5.74

Nlocal:        19.0000 ave          19 max          19 min
Histogram: 1 0 0 0 0 0 0 0 0 0
Nghost:        0.00000 ave           0 max           0 min
Histogram: 1 0 0 0 0 0 0 0 0 0
Neighs:        0.00000 ave           0 max           0 min
Histogram: 1 0 0 0 0 0 0 0 0 0

Total # of neighbors = 0
Ave neighs/atom = 0.0000000
Ave special neighs/atom = 5.6842105
Neighbor list builds = 0
Dangerous builds = 0
unfix		10
unfix		2
group		holdgroup clear
next		a
jump 		in.pdms loop
group		holdgroup id >= $a
group		holdgroup id >= 4
16 atoms in group holdgroup
fix		2 holdgroup setforce 0.0 0.0 0.0
minimize 	1.0e-6 1.0e-8 1000 10000
WARNING: Using 'neigh_modify every 1 delay 0 check yes' setting during minimization (../min.cpp:187)
  Parameters for fire: 
    dmax delaystep dtgrow dtshrink alpha0 alphashrink tmax tmin    integrator halfstepback 
     0.1        20    1.1      0.5   0.25        0.99   10 0.02 eulerimplicit          yes 
Per MPI rank memory allocation (min/avg/max) = 8.866 | 8.866 | 8.866 Mbytes
Step Time TotEng PotEng KinEng Temp Press Pxx Pyy Pzz Pxy Pxz Pyz Lx Ly Lz 
     420          300    37152.809    37152.809            0            0     34948.02    44838.941    30651.621    29353.498    13735.649    28551.517   -25881.141           20           20           20 
     498    457.02473    34930.597    34929.847   0.75066894    13.990771     32306.76    43057.011    32481.282    21381.988    10596.922    24481.454   -31742.367           20           20           20 
Loop time of 0.000492945 on 1 procs for 78 steps with 19 atoms

100.0% CPU use with 1 MPI tasks x no OpenMP threads

Minimization stats:
  Stopping criterion = energy tolerance
  Energy initial, next-to-last, final = 
      37152.8094322127    34929.879397604   34929.8466233251
  Force two-norm initial, final = 1713.7676 8.0420027
  Force max component initial, final = 1514.1610 4.3816066
  Final line search alpha, max atom move = 0.0000000 0.0000000
  Iterations, force evaluations = 78 82

MPI task timing breakdown:
Section |  min time  |  avg time  |  max time  |%varavg| %total
---------------------------------------------------------------
Pair    | 0          | 0          | 0          |   0.0 |  0.00
Bond    | 0.00031528 | 0.00031528 | 0.00031528 |   0.0 | 63.96
Neigh   | 7.82e-06   | 7.82e-06   | 7.82e-06   |   0.0 |  1.59
Comm    | 1.442e-05  | 1.442e-05  | 1.442e-05  |   0.0 |  2.93
Output  | 0          | 0          | 0          |   0.0 |  0.00
Modify  | 1.2e-05    | 1.2e-05    | 1.2e-05    |   0.0 |  2.43
Other   |            | 0.0001434  |            |       | 29.10

Nlocal:        19.0000 ave          19 max          19 min
Histogram: 1 0 0 0 0 0 0 0 0 0
Nghost:        0.00000 ave           0 max           0 min
Histogram: 1 0 0 0 0 0 0 0 0 0
Neighs:        0.00000 ave           0 max           0 min
Histogram: 1 0 0 0 0 0 0 0 0 0

Total # of neighbors = 0
Ave neighs/atom = 0.0000000
Ave special neighs/atom = 5.6842105
Neighbor list builds = 4
Dangerous builds = 0
fix		10 all nvt temp 300.0 300.0 10.0
run		100
Per MPI rank memory allocation (min/avg/max) = 8.866 | 8.866 | 8.866 Mbytes
Step Time TotEng PotEng KinEng Temp Press Pxx Pyy Pzz Pxy Pxz Pyz Lx Ly Lz 
     498          300    34930.597    34929.847   0.75066894    13.990771     32306.76    43057.011    32481.282    21381.988    10596.922    24481.454   -31742.367           20           20           20 
     598          400    34981.289    34972.835    8.4546395    157.57535    32273.682    42834.953    33176.411    20809.681    10099.107    24711.503   -31634.351           20           20           20 
Loop time of 0.000503054 on 1 procs for 100 steps with 19 atoms

Performance: 17175.095 ns/day, 0.001 hours/ns, 198785.816 timesteps/s
100.0% CPU use with 1 MPI tasks x no OpenMP threads

MPI task timing breakdown:
Section |  min time  |  avg time  |  max time  |%varavg| %total
---------------------------------------------------------------
Pair    | 0          | 0          | 0          |   0.0 |  0.00
Bond    | 0.00035035 | 0.00035035 | 0.00035035 |   0.0 | 69.65
Neigh   | 2.07e-06   | 2.07e-06   | 2.07e-06   |   0.0 |  0.41
Comm    | 1.455e-05  | 1.455e-05  | 1.455e-05  |   0.0 |  2.89
Output  | 1.331e-05  | 1.331e-05  | 1.331e-05  |   0.0 |  2.65
Modify  | 9.534e-05  | 9.534e-05  | 9.534e-05  |   0.0 | 18.95
Other   |            | 2.743e-05  |            |       |  5.45

Nlocal:        19.0000 ave          19 max          19 min
Histogram: 1 0 0 0 0 0 0 0 0 0
Nghost:        0.00000 ave           0 max           0 min
Histogram: 1 0 0 0 0 0 0 0 0 0
Neighs:        0.00000 ave           0 max           0 min
Histogram: 1 0 0 0 0 0 0 0 0 0

Total # of neighbors = 0
Ave neighs/atom = 0.0000000
Ave special neighs/atom = 5.6842105
Neighbor list builds = 1
Dangerous builds = 0
unfix		10
unfix		2
group		holdgroup clear
next		a
jump 		in.pdms loop
group		holdgroup id >= $a
group		holdgroup id >= 5
15 atoms in group holdgroup
fix		2 holdgroup setforce 0.0 0.0 0.0
minimize 	1.0e-6 1.0e-8 1000 10000
WARNING: Using 'neigh_modify every 1 delay 0 check yes' setting during minimization (../min.cpp:187)
  Parameters for fire: 
    dmax delaystep dtgrow dtshrink alpha0 alphashrink tmax tmin    integrator halfstepback 
     0.1        20    1.1      0.5   0.25        0.99   10 0.02 eulerimplicit          yes 
Per MPI rank memory allocation (min/avg/max) = 8.866 | 8.866 | 8.866 Mbytes
Step Time TotEng PotEng KinEng Temp Press Pxx Pyy Pzz Pxy Pxz Pyz Lx Ly Lz 
     598          400    34972.835    34972.835            0            0    32225.372    42720.138    33174.914    20781.063    10096.647    24690.768   -31632.819           20           20           20 
     758     568.1875    31772.334    31772.123   0.21106622    3.9337968    30068.022    41554.483    33703.158    14946.425    7439.6046    26906.005   -23449.721           20           20           20 
Loop time of 0.000935109 on 1 procs for 160 steps with 19 atoms

100.0% CPU use with 1 MPI tasks x no OpenMP threads

Minimization stats:
  Stopping criterion = energy tolerance
  Energy initial, next-to-last, final = 
      34972.8347288257   31772.1501518075   31772.1234165806
  Force two-norm initial, final = 4462.8058 6.6230610
  Force max component initial, final = 3786.0866 3.3582413
  Final line search alpha, max atom move = 0.0000000 0.0000000
  Iterations, force evaluations = 160 167

MPI task timing breakdown:
Section |  min time  |  avg time  |  max time  |%varavg| %total
---------------------------------------------------------------
Pair    | 0          | 0          | 0          |   0.0 |  0.00
Bond    | 0.00064052 | 0.00064052 | 0.00064052 |   0.0 | 68.50
Neigh   | 1.542e-05  | 1.542e-05  | 1.542e-05  |   0.0 |  1.65
Comm    | 2.8639e-05 | 2.8639e-05 | 2.8639e-05 |   0.0 |  3.06
Output  | 0          | 0          | 0          |   0.0 |  0.00
Modify  | 2.408e-05  | 2.408e-05  | 2.408e-05  |   0.0 |  2.58
Other   |            | 0.0002264  |            |       | 24.22

Nlocal:        19.0000 ave          19 max          19 min
Histogram: 1 0 0 0 0 0 0 0 0 0
Nghost:        0.00000 ave           0 max           0 min
Histogram: 1 0 0 0 0 0 0 0 0 0
Neighs:        0.00000 ave           0 max           0 min
Histogram: 1 0 0 0 0 0 0 0 0 0

Total # of neighbors = 0
Ave neighs/atom = 0.0000000
Ave special neighs/atom = 5.6842105
Neighbor list builds = 8
Dangerous builds = 0
fix		10 all nvt temp 300.0 300.0 10.0
run		100
Per MPI rank memory allocation (min/avg/max) = 8.866 | 8.866 | 8.866 Mbytes
Step Time TotEng PotEng KinEng Temp Press Pxx Pyy Pzz Pxy Pxz Pyz Lx Ly Lz 
     758          400    31772.334    31772.123   0.21106622    3.9337968    30068.022    41554.483    33703.158    14946.425    7439.6046    26906.005   -23449.721           20           20           20 
     858          500    31789.312    31773.115    16.196722    301.87026    29902.072    40962.187    33789.367    14954.662    7680.1769    26677.836   -23506.066           20           20           20 
Loop time of 0.000521864 on 1 procs for 100 steps with 19 atoms

Performance: 16556.038 ns/day, 0.001 hours/ns, 191620.805 timesteps/s
98.7% CPU use with 1 MPI tasks x no OpenMP threads

MPI task timing breakdown:
Section |  min time  |  avg time  |  max time  |%varavg| %total
---------------------------------------------------------------
Pair    | 0          | 0          | 0          |   0.0 |  0.00
Bond    | 0.00036733 | 0.00036733 | 0.00036733 |   0.0 | 70.39
Neigh   | 2.089e-06  | 2.089e-06  | 2.089e-06  |   0.0 |  0.40
Comm    | 1.507e-05  | 1.507e-05  | 1.507e-05  |   0.0 |  2.89
Output  | 1.461e-05  | 1.461e-05  | 1.461e-05  |   0.0 |  2.80
Modify  | 9.5499e-05 | 9.5499e-05 | 9.5499e-05 |   0.0 | 18.30
Other   |            | 2.727e-05  |            |       |  5.23

Nlocal:        19.0000 ave          19 max          19 min
Histogram: 1 0 0 0 0 0 0 0 0 0
Nghost:        0.00000 ave           0 max           0 min
Histogram: 1 0 0 0 0 0 0 0 0 0
Neighs:        0.00000 ave           0 max           0 min
Histogram: 1 0 0 0 0 0 0 0 0 0

Total # of neighbors = 0
Ave neighs/atom = 0.0000000
Ave special neighs/atom = 5.6842105
Neighbor list builds = 1
Dangerous builds = 0
unfix		10
unfix		2
group		holdgroup clear
next		a
jump 		in.pdms loop
group		holdgroup id >= $a
group		holdgroup id >= 6
14 atoms in group holdgroup
fix		2 holdgroup setforce 0.0 0.0 0.0
minimize 	1.0e-6 1.0e-8 1000 10000
WARNING: Using 'neigh_modify every 1 delay 0 check yes' setting during minimization (../min.cpp:187)
  Parameters for fire: 
    dmax delaystep dtgrow dtshrink alpha0 alphashrink tmax tmin    integrator halfstepback 
     0.1        20    1.1      0.5   0.25        0.99   10 0.02 eulerimplicit          yes 
Per MPI rank memory allocation (min/avg/max) = 8.866 | 8.866 | 8.866 Mbytes
Step Time TotEng PotEng KinEng Temp Press Pxx Pyy Pzz Pxy Pxz Pyz Lx Ly Lz 
     858          500    31773.115    31773.115            0            0    29809.523    40910.114     33644.19    14874.265    7594.0422    26741.798   -23398.048           20           20           20 
    1000      645.439    30032.528     30032.41   0.11777877    2.1951298    27189.079    45116.933    34467.775    1982.5291    2676.0368    23842.149   -28603.266           20           20           20 
    1045    700.01585    30030.632    30030.426   0.20557016    3.8313627    27193.265     45117.02     34509.28    1953.4939    2681.9138    23806.352   -28592.677           20           20           20 
Loop time of 0.000907459 on 1 procs for 187 steps with 19 atoms

99.9% CPU use with 1 MPI tasks x no OpenMP threads

Minimization stats:
  Stopping criterion = energy tolerance
  Energy initial, next-to-last, final = 
      31773.1153702574   30030.4526019851   30030.4262354166
  Force two-norm initial, final = 2387.2400 6.5113863
  Force max component initial, final = 2148.8919 3.8918653
  Final line search alpha, max atom move = 0.0000000 0.0000000
  Iterations, force evaluations = 187 197

MPI task timing breakdown:
Section |  min time  |  avg time  |  max time  |%varavg| %total
---------------------------------------------------------------
Pair    | 0          | 0          | 0          |   0.0 |  0.00
Bond    | 0.00062696 | 0.00062696 | 0.00062696 |   0.0 | 69.09
Neigh   | 9.66e-06   | 9.66e-06   | 9.66e-06   |   0.0 |  1.06
Comm    | 2.621e-05  | 2.621e-05  | 2.621e-05  |   0.0 |  2.89
Output  | 3.571e-05  | 3.571e-05  | 3.571e-05  |   0.0 |  3.94
Modify  | 2.26e-05   | 2.26e-05   | 2.26e-05   |   0.0 |  2.49
Other   |            | 0.0001863  |            |       | 20.53

Nlocal:        19.0000 ave          19 max          19 min
Histogram: 1 0 0 0 0 0 0 0 0 0
Nghost:        0.00000 ave           0 max           0 min
Histogram: 1 0 0 0 0 0 0 0 0 0
Neighs:        0.00000 ave           0 max           0 min
Histogram: 1 0 0 0 0 0 0 0 0 0

Total # of neighbors = 0
Ave neighs/atom = 0.0000000
Ave special neighs/atom = 5.6842105
Neighbor list builds = 5
Dangerous builds = 0
fix		10 all nvt temp 300.0 300.0 10.0
run		100
Per MPI rank memory allocation (min/avg/max) = 8.866 | 8.866 | 8.866 Mbytes
Step Time TotEng PotEng KinEng Temp Press Pxx Pyy Pzz Pxy Pxz Pyz Lx Ly Lz 
    1045          500    30030.632    30030.426   0.20557016    3.8313627    27193.265     45117.02     34509.28    1953.4939    2681.9138    23806.352   -28592.677           20           20           20 
    1145          600     30035.56    30019.645    15.915944    296.63718    27198.538    45186.902    34823.425    1585.2856    2817.6358    23852.012   -28335.584           20           20           20 
Loop time of 0.000249587 on 1 procs for 100 steps with 19 atoms

Performance: 34617.188 ns/day, 0.001 hours/ns, 400661.893 timesteps/s
100.2% CPU use with 1 MPI tasks x no OpenMP threads

MPI task timing breakdown:
Section |  min time  |  avg time  |  max time  |%varavg| %total
---------------------------------------------------------------
Pair    | 0          | 0          | 0          |   0.0 |  0.00
Bond    | 0.00017251 | 0.00017251 | 0.00017251 |   0.0 | 69.12
Neigh   | 1e-06      | 1e-06      | 1e-06      |   0.0 |  0.40
Comm    | 8.33e-06   | 8.33e-06   | 8.33e-06   |   0.0 |  3.34
Output  | 7.349e-06  | 7.349e-06  | 7.349e-06  |   0.0 |  2.94
Modify  | 4.688e-05  | 4.688e-05  | 4.688e-05  |   0.0 | 18.78
Other   |            | 1.352e-05  |            |       |  5.42

Nlocal:        19.0000 ave          19 max          19 min
Histogram: 1 0 0 0 0 0 0 0 0 0
Nghost:        0.00000 ave           0 max           0 min
Histogram: 1 0 0 0 0 0 0 0 0 0
Neighs:        0.00000 ave           0 max           0 min
Histogram: 1 0 0 0 0 0 0 0 0 0

Total # of neighbors = 0
Ave neighs/atom = 0.0000000
Ave special neighs/atom = 5.6842105
Neighbor list builds = 1
Dangerous builds = 0
unfix		10
unfix		2
group		holdgroup clear
next		a
jump 		in.pdms loop
group		holdgroup id >= $a
group		holdgroup id >= 7
13 atoms in group holdgroup
fix		2 holdgroup setforce 0.0 0.0 0.0
minimize 	1.0e-6 1.0e-8 1000 10000
WARNING: Using 'neigh_modify every 1 delay 0 check yes' setting during minimization (../min.cpp:187)
  Parameters for fire: 
    dmax delaystep dtgrow dtshrink alpha0 alphashrink tmax tmin    integrator halfstepback 
     0.1        20    1.1      0.5   0.25        0.99   10 0.02 eulerimplicit          yes 
Per MPI rank memory allocation (min/avg/max) = 8.866 | 8.866 | 8.866 Mbytes
Step Time TotEng PotEng KinEng Temp Press Pxx Pyy Pzz Pxy Pxz Pyz Lx Ly Lz 
    1145          600    30019.645    30019.645            0            0    27107.593    45152.891    34616.311     1553.578    2734.4514    23824.602   -28408.405           20           20           20 
    1274    674.58064    28231.217    28231.064   0.15320327    2.8553624    24416.735    49809.263    24563.924   -1122.9816    7121.7528    23886.338   -22196.326           20           20           20 
Loop time of 0.000377086 on 1 procs for 129 steps with 19 atoms

100.0% CPU use with 1 MPI tasks x no OpenMP threads

Minimization stats:
  Stopping criterion = energy tolerance
  Energy initial, next-to-last, final = 
      30019.6445338333   28231.0831426189   28231.0637157093
  Force two-norm initial, final = 2372.2170 10.277597
  Force max component initial, final = 2156.8043 4.6279963
  Final line search alpha, max atom move = 0.0000000 0.0000000
  Iterations, force evaluations = 129 137

MPI task timing breakdown:
Section |  min time  |  avg time  |  max time  |%varavg| %total
---------------------------------------------------------------
Pair    | 0          | 0          | 0          |   0.0 |  0.00
Bond    | 0.00025779 | 0.00025779 | 0.00025779 |   0.0 | 68.36
Neigh   | 4.21e-06   | 4.21e-06   | 4.21e-06   |   0.0 |  1.12
Comm    | 1.088e-05  | 1.088e-05  | 1.088e-05  |   0.0 |  2.89
Output  | 0          | 0          | 0          |   0.0 |  0.00
Modify  | 8.98e-06   | 8.98e-06   | 8.98e-06   |   0.0 |  2.38
Other   |            | 9.523e-05  |            |       | 25.25

Nlocal:        19.0000 ave          19 max          19 min
Histogram: 1 0 0 0 0 0 0 0 0 0
Nghost:        0.00000 ave           0 max           0 min
Histogram: 1 0 0 0 0 0 0 0 0 0
Neighs:        0.00000 ave           0 max           0 min
Histogram: 1 0 0 0 0 0 0 0 0 0

Total # of neighbors = 0
Ave neighs/atom = 0.0000000
Ave special neighs/atom = 5.6842105
Neighbor list builds = 4
Dangerous builds = 0
fix		10 all nvt temp 300.0 300.0 10.0
run		100
Per MPI rank memory allocation (min/avg/max) = 8.866 | 8.866 | 8.866 Mbytes
Step Time TotEng PotEng KinEng Temp Press Pxx Pyy Pzz Pxy Pxz Pyz Lx Ly Lz 
    1274          600    28231.217    28231.064   0.15320327    2.8553624    24416.735    49809.263    24563.924   -1122.9816    7121.7528    23886.338   -22196.326           20           20           20 
    1374          700    28226.124    28210.491    15.632823    291.36045    24708.243    50156.681    24732.115   -764.06567     7286.959    24090.029   -22368.277           20           20           20 
Loop time of 0.000250087 on 1 procs for 100 steps with 19 atoms

Performance: 34547.977 ns/day, 0.001 hours/ns, 399860.848 timesteps/s
100.0% CPU use with 1 MPI tasks x no OpenMP threads

MPI task timing breakdown:
Section |  min time  |  avg time  |  max time  |%varavg| %total
---------------------------------------------------------------
Pair    | 0          | 0          | 0          |   0.0 |  0.00
Bond    | 0.00017455 | 0.00017455 | 0.00017455 |   0.0 | 69.79
Neigh   | 1.02e-06   | 1.02e-06   | 1.02e-06   |   0.0 |  0.41
Comm    | 7.14e-06   | 7.14e-06   | 7.14e-06   |   0.0 |  2.86
Output  | 7.26e-06   | 7.26e-06   | 7.26e-06   |   0.0 |  2.90
Modify  | 4.651e-05  | 4.651e-05  | 4.651e-05  |   0.0 | 18.60
Other   |            | 1.361e-05  |            |       |  5.44

Nlocal:        19.0000 ave          19 max          19 min
Histogram: 1 0 0 0 0 0 0 0 0 0
Nghost:        0.00000 ave           0 max           0 min
Histogram: 1 0 0 0 0 0 0 0 0 0
Neighs:        0.00000 ave           0 max           0 min
Histogram: 1 0 0 0 0 0 0 0 0 0

Total # of neighbors = 0
Ave neighs/atom = 0.0000000
Ave special neighs/atom = 5.6842105
Neighbor list builds = 1
Dangerous builds = 0
unfix		10
unfix		2
group		holdgroup clear
next		a
jump 		in.pdms loop
group		holdgroup id >= $a
group		holdgroup id >= 8
12 atoms in group holdgroup
fix		2 holdgroup setforce 0.0 0.0 0.0
minimize 	1.0e-6 1.0e-8 1000 10000
WARNING: Using 'neigh_modify every 1 delay 0 check yes' setting during minimization (../min.cpp:187)
  Parameters for fire: 
    dmax delaystep dtgrow dtshrink alpha0 alphashrink tmax tmin    integrator halfstepback 
     0.1        20    1.1      0.5   0.25        0.99   10 0.02 eulerimplicit          yes 
Per MPI rank memory allocation (min/avg/max) = 8.866 | 8.866 | 8.866 Mbytes
Step Time TotEng PotEng KinEng Temp Press Pxx Pyy Pzz Pxy Pxz Pyz Lx Ly Lz 
    1374          700    28210.491    28210.491            0            0    24618.917    49994.523    24713.961   -851.73272    7263.3037     23979.82   -22371.035           20           20           20 
    1644    986.32183    25664.335    25664.158   0.17725823    3.3036925    22415.476    37592.929    31458.798   -1805.3006    10166.824    27254.721   -21810.972           20           20           20 
Loop time of 0.000736901 on 1 procs for 270 steps with 19 atoms

100.0% CPU use with 1 MPI tasks x no OpenMP threads

Minimization stats:
  Stopping criterion = energy tolerance
  Energy initial, next-to-last, final = 
      28210.4908290187    25664.180480703   25664.1582086123
  Force two-norm initial, final = 3912.4742 5.9612489
  Force max component initial, final = 3546.4629 2.7769105
  Final line search alpha, max atom move = 0.0000000 0.0000000
  Iterations, force evaluations = 270 284

MPI task timing breakdown:
Section |  min time  |  avg time  |  max time  |%varavg| %total
---------------------------------------------------------------
Pair    | 0          | 0          | 0          |   0.0 |  0.00
Bond    | 0.00053109 | 0.00053109 | 0.00053109 |   0.0 | 72.07
Neigh   | 5.689e-06  | 5.689e-06  | 5.689e-06  |   0.0 |  0.77
Comm    | 2.066e-05  | 2.066e-05  | 2.066e-05  |   0.0 |  2.80
Output  | 0          | 0          | 0          |   0.0 |  0.00
Modify  | 1.738e-05  | 1.738e-05  | 1.738e-05  |   0.0 |  2.36
Other   |            | 0.0001621  |            |       | 21.99

Nlocal:        19.0000 ave          19 max          19 min
Histogram: 1 0 0 0 0 0 0 0 0 0
Nghost:        0.00000 ave           0 max           0 min
Histogram: 1 0 0 0 0 0 0 0 0 0
Neighs:        0.00000 ave           0 max           0 min
Histogram: 1 0 0 0 0 0 0 0 0 0

Total # of neighbors = 0
Ave neighs/atom = 0.0000000
Ave special neighs/atom = 5.6842105
Neighbor list builds = 6
Dangerous builds = 0
fix		10 all nvt temp 300.0 300.0 10.0
run		100
Per MPI rank memory allocation (min/avg/max) = 8.866 | 8.866 | 8.866 Mbytes
Step Time TotEng PotEng KinEng Temp Press Pxx Pyy Pzz Pxy Pxz Pyz Lx Ly Lz 
    1644          700    25664.335    25664.158   0.17725823    3.3036925    22415.476    37592.929    31458.798   -1805.3006    10166.824    27254.721   -21810.972           20           20           20 
    1744          800    25677.746    25661.122    16.623396    309.82248    22535.525    37910.717     31412.55   -1716.6921    10369.038    27058.712   -21821.786           20           20           20 
Loop time of 0.000250397 on 1 procs for 100 steps with 19 atoms

Performance: 34505.206 ns/day, 0.001 hours/ns, 399365.807 timesteps/s
99.8% CPU use with 1 MPI tasks x no OpenMP threads

MPI task timing breakdown:
Section |  min time  |  avg time  |  max time  |%varavg| %total
---------------------------------------------------------------
Pair    | 0          | 0          | 0          |   0.0 |  0.00
Bond    | 0.00017475 | 0.00017475 | 0.00017475 |   0.0 | 69.79
Neigh   | 1e-06      | 1e-06      | 1e-06      |   0.0 |  0.40
Comm    | 7.13e-06   | 7.13e-06   | 7.13e-06   |   0.0 |  2.85
Output  | 7.42e-06   | 7.42e-06   | 7.42e-06   |   0.0 |  2.96
Modify  | 4.6468e-05 | 4.6468e-05 | 4.6468e-05 |   0.0 | 18.56
Other   |            | 1.363e-05  |            |       |  5.44

Nlocal:        19.0000 ave          19 max          19 min
Histogram: 1 0 0 0 0 0 0 0 0 0
Nghost:        0.00000 ave           0 max           0 min
Histogram: 1 0 0 0 0 0 0 0 0 0
Neighs:        0.00000 ave           0 max           0 min
Histogram: 1 0 0 0 0 0 0 0 0 0

Total # of neighbors = 0
Ave neighs/atom = 0.0000000
Ave special neighs/atom = 5.6842105
Neighbor list builds = 1
Dangerous builds = 0
unfix		10
unfix		2
group		holdgroup clear
next		a
jump 		in.pdms loop
group		holdgroup id >= $a
group		holdgroup id >= 9
11 atoms in group holdgroup
fix		2 holdgroup setforce 0.0 0.0 0.0
minimize 	1.0e-6 1.0e-8 1000 10000
WARNING: Using 'neigh_modify every 1 delay 0 check yes' setting during minimization (../min.cpp:187)
  Parameters for fire: 
    dmax delaystep dtgrow dtshrink alpha0 alphashrink tmax tmin    integrator halfstepback 
     0.1        20    1.1      0.5   0.25        0.99   10 0.02 eulerimplicit          yes 
Per MPI rank memory allocation (min/avg/max) = 8.866 | 8.866 | 8.866 Mbytes
Step Time TotEng PotEng KinEng Temp Press Pxx Pyy Pzz Pxy Pxz Pyz Lx Ly Lz 
    1744          800    25661.122    25661.122            0            0    22440.538    37804.738    31273.395   -1756.5188    10257.402    27104.159    -21793.21           20           20           20 
    2000    1293.5918    22111.474    22111.374   0.10026486    1.8687102    20030.936     37320.25    22780.892   -8.3346017    10628.303    23967.595   -1855.9329           20           20           20 
    2060    1118.1379    22109.534    22109.362   0.17257587    3.2164238    20031.157    37363.918    22835.355   -105.80341    10581.641    23935.549   -1791.8354           20           20           20 
Loop time of 0.00090932 on 1 procs for 316 steps with 19 atoms

100.1% CPU use with 1 MPI tasks x no OpenMP threads

Minimization stats:
  Stopping criterion = energy tolerance
  Energy initial, next-to-last, final = 
      25661.1221110374   22109.3836601036   22109.3617444271
  Force two-norm initial, final = 6154.6796 6.2709883
  Force max component initial, final = 5344.7766 2.3579626
  Final line search alpha, max atom move = 0.0000000 0.0000000
  Iterations, force evaluations = 316 332

MPI task timing breakdown:
Section |  min time  |  avg time  |  max time  |%varavg| %total
---------------------------------------------------------------
Pair    | 0          | 0          | 0          |   0.0 |  0.00
Bond    | 0.00063919 | 0.00063919 | 0.00063919 |   0.0 | 70.29
Neigh   | 6.69e-06   | 6.69e-06   | 6.69e-06   |   0.0 |  0.74
Comm    | 2.487e-05  | 2.487e-05  | 2.487e-05  |   0.0 |  2.74
Output  | 3.48e-05   | 3.48e-05   | 3.48e-05   |   0.0 |  3.83
Modify  | 2.055e-05  | 2.055e-05  | 2.055e-05  |   0.0 |  2.26
Other   |            | 0.0001832  |            |       | 20.15

Nlocal:        19.0000 ave          19 max          19 min
Histogram: 1 0 0 0 0 0 0 0 0 0
Nghost:        0.00000 ave           0 max           0 min
Histogram: 1 0 0 0 0 0 0 0 0 0
Neighs:        0.00000 ave           0 max           0 min
Histogram: 1 0 0 0 0 0 0 0 0 0

Total # of neighbors = 0
Ave neighs/atom = 0.0000000
Ave special neighs/atom = 5.6842105
Neighbor list builds = 7
Dangerous builds = 0
fix		10 all nvt temp 300.0 300.0 10.0
run		100
Per MPI rank memory allocation (min/avg/max) = 8.866 | 8.866 | 8.866 Mbytes
Step Time TotEng PotEng KinEng Temp Press Pxx Pyy Pzz Pxy Pxz Pyz Lx Ly Lz 
    2060          800    22109.534    22109.362   0.17257587    3.2164238    20031.157    37363.918    22835.355   -105.80341    10581.641    23935.549   -1791.8354           20           20           20 
    2160          900    22124.394    22107.615    16.778797    312.71881    19990.623    37716.379    23380.218   -1124.7278    10360.335    23681.879   -1336.7171           20           20           20 
Loop time of 0.000259957 on 1 procs for 100 steps with 19 atoms

Performance: 33236.266 ns/day, 0.001 hours/ns, 384679.005 timesteps/s
100.0% CPU use with 1 MPI tasks x no OpenMP threads

MPI task timing breakdown:
Section |  min time  |  avg time  |  max time  |%varavg| %total
---------------------------------------------------------------
Pair    | 0          | 0          | 0          |   0.0 |  0.00
Bond    | 0.0001816  | 0.0001816  | 0.0001816  |   0.0 | 69.86
Neigh   | 1.06e-06   | 1.06e-06   | 1.06e-06   |   0.0 |  0.41
Comm    | 7.31e-06   | 7.31e-06   | 7.31e-06   |   0.0 |  2.81
Output  | 7.31e-06   | 7.31e-06   | 7.31e-06   |   0.0 |  2.81
Modify  | 4.857e-05  | 4.857e-05  | 4.857e-05  |   0.0 | 18.68
Other   |            | 1.411e-05  |            |       |  5.43

Nlocal:        19.0000 ave          19 max          19 min
Histogram: 1 0 0 0 0 0 0 0 0 0
Nghost:        0.00000 ave           0 max           0 min
Histogram: 1 0 0 0 0 0 0 0 0 0
Neighs:        0.00000 ave           0 max           0 min
Histogram: 1 0 0 0 0 0 0 0 0 0

Total # of neighbors = 0
Ave neighs/atom = 0.0000000
Ave special neighs/atom = 5.6842105
Neighbor list builds = 1
Dangerous builds = 0
unfix		10
unfix		2
group		holdgroup clear
next		a
jump 		in.pdms loop
group		holdgroup id >= $a
group		holdgroup id >= 10
10 atoms in group holdgroup
fix		2 holdgroup setforce 0.0 0.0 0.0
minimize 	1.0e-6 1.0e-8 1000 10000
WARNING: Using 'neigh_modify every 1 delay 0 check yes' setting during minimization (../min.cpp:187)
  Parameters for fire: 
    dmax delaystep dtgrow dtshrink alpha0 alphashrink tmax tmin    integrator halfstepback 
     0.1        20    1.1      0.5   0.25        0.99   10 0.02 eulerimplicit          yes 
Per MPI rank memory allocation (min/avg/max) = 8.866 | 8.866 | 8.866 Mbytes
Step Time TotEng PotEng KinEng Temp Press Pxx Pyy Pzz Pxy Pxz Pyz Lx Ly Lz 
    2160          900    22107.615    22107.615            0            0    19894.748    37702.165    23145.887   -1163.8071    10323.817    23660.878   -1424.1833           20           20           20 
    3000    3923.9903    21536.741    21535.135    1.6052435    29.918107    20054.474    36922.632    22932.804    307.98577    10817.823     24926.78   -2149.2022           20           20           20 
    3160     1784.661    21525.159    21525.122  0.037441679    0.6978282      20010.8     36870.29    22914.606    247.50464    10846.713    24817.993   -2080.4556           20           20           20 
Loop time of 0.00272696 on 1 procs for 1000 steps with 19 atoms

100.0% CPU use with 1 MPI tasks x no OpenMP threads

Minimization stats:
  Stopping criterion = max iterations
  Energy initial, next-to-last, final = 
       22107.615206543   21525.1333970909    21525.121679571
  Force two-norm initial, final = 101.56383 8.1383046
  Force max component initial, final = 76.970148 4.7310598
  Final line search alpha, max atom move = 0.0000000 0.0000000
  Iterations, force evaluations = 1000 1054

MPI task timing breakdown:
Section |  min time  |  avg time  |  max time  |%varavg| %total
---------------------------------------------------------------
Pair    | 0          | 0          | 0          |   0.0 |  0.00
Bond    | 0.0020343  | 0.0020343  | 0.0020343  |   0.0 | 74.60
Neigh   | 1.182e-05  | 1.182e-05  | 1.182e-05  |   0.0 |  0.43
Comm    | 8.5189e-05 | 8.5189e-05 | 8.5189e-05 |   0.0 |  3.12
Output  | 7.108e-05  | 7.108e-05  | 7.108e-05  |   0.0 |  2.61
Modify  | 6.195e-05  | 6.195e-05  | 6.195e-05  |   0.0 |  2.27
Other   |            | 0.0004626  |            |       | 16.96

Nlocal:        19.0000 ave          19 max          19 min
Histogram: 1 0 0 0 0 0 0 0 0 0
Nghost:        3.00000 ave           3 max           3 min
Histogram: 1 0 0 0 0 0 0 0 0 0
Neighs:        0.00000 ave           0 max           0 min
Histogram: 1 0 0 0 0 0 0 0 0 0

Total # of neighbors = 0
Ave neighs/atom = 0.0000000
Ave special neighs/atom = 5.6842105
Neighbor list builds = 12
Dangerous builds = 0
fix		10 all nvt temp 300.0 300.0 10.0
run		100
Per MPI rank memory allocation (min/avg/max) = 8.866 | 8.866 | 8.866 Mbytes
Step Time TotEng PotEng KinEng Temp Press Pxx Pyy Pzz Pxy Pxz Pyz Lx Ly Lz 
    3160          900    21525.159    21525.122  0.037441679    0.6978282      20010.8     36870.29    22914.606    247.50464    10846.713    24817.993   -2080.4556           20           20           20 
    3260         1000    21522.566    21505.762    16.803636    313.18175    19999.607    36790.789    22896.922    311.10943    10880.856    24431.328   -1828.4986           20           20           20 
Loop time of 0.000270606 on 1 procs for 100 steps with 19 atoms

Performance: 31928.339 ns/day, 0.001 hours/ns, 369540.956 timesteps/s
100.1% CPU use with 1 MPI tasks x no OpenMP threads

MPI task timing breakdown:
Section |  min time  |  avg time  |  max time  |%varavg| %total
---------------------------------------------------------------
Pair    | 0          | 0          | 0          |   0.0 |  0.00
Bond    | 0.00018967 | 0.00018967 | 0.00018967 |   0.0 | 70.09
Neigh   | 1.29e-06   | 1.29e-06   | 1.29e-06   |   0.0 |  0.48
Comm    | 1.0789e-05 | 1.0789e-05 | 1.0789e-05 |   0.0 |  3.99
Output  | 7.069e-06  | 7.069e-06  | 7.069e-06  |   0.0 |  2.61
Modify  | 4.766e-05  | 4.766e-05  | 4.766e-05  |   0.0 | 17.61
Other   |            | 1.413e-05  |            |       |  5.22

Nlocal:        19.0000 ave          19 max          19 min
Histogram: 1 0 0 0 0 0 0 0 0 0
Nghost:        7.00000 ave           7 max           7 min
Histogram: 1 0 0 0 0 0 0 0 0 0
Neighs:        0.00000 ave           0 max           0 min
Histogram: 1 0 0 0 0 0 0 0 0 0

Total # of neighbors = 0
Ave neighs/atom = 0.0000000
Ave special neighs/atom = 5.6842105
Neighbor list builds = 1
Dangerous builds = 0
unfix		10
unfix		2
group		holdgroup clear
next		a
jump 		in.pdms loop
group		holdgroup id >= $a
group		holdgroup id >= 11
10 atoms in group holdgroup
fix		2 holdgroup setforce 0.0 0.0 0.0
minimize 	1.0e-6 1.0e-8 1000 10000
WARNING: Using 'neigh_modify every 1 delay 0 check yes' setting during minimization (../min.cpp:187)
  Parameters for fire: 
    dmax delaystep dtgrow dtshrink alpha0 alphashrink tmax tmin    integrator halfstepback 
     0.1        20    1.1      0.5   0.25        0.99   10 0.02 eulerimplicit          yes 
Per MPI rank memory allocation (min/avg/max) = 8.866 | 8.866 | 8.866 Mbytes
Step Time TotEng PotEng KinEng Temp Press Pxx Pyy Pzz Pxy Pxz Pyz Lx Ly Lz 
    3260         1000    21505.762    21505.762            0            0     19903.59    36757.216    22879.712    73.842724    10904.859    24508.456   -1882.5937           20           20           20 
    3356    1095.1786    21502.973    21502.817   0.15594606    2.9064817    19946.293     36849.15    22924.329    65.399177    10838.592    24506.356   -1882.5966           20           20           20 
Loop time of 0.000305477 on 1 procs for 96 steps with 19 atoms

100.2% CPU use with 1 MPI tasks x no OpenMP threads

Minimization stats:
  Stopping criterion = energy tolerance
  Energy initial, next-to-last, final = 
      21505.7624306978   21502.8374632349   21502.8173373597
  Force two-norm initial, final = 7.5034697 6.1580464
  Force max component initial, final = 3.5586008 3.1107669
  Final line search alpha, max atom move = 0.0000000 0.0000000
  Iterations, force evaluations = 96 101

MPI task timing breakdown:
Section |  min time  |  avg time  |  max time  |%varavg| %total
---------------------------------------------------------------
Pair    | 0          | 0          | 0          |   0.0 |  0.00
Bond    | 0.00020398 | 0.00020398 | 0.00020398 |   0.0 | 66.77
Neigh   | 0          | 0          | 0          |   0.0 |  0.00
Comm    | 1.139e-05  | 1.139e-05  | 1.139e-05  |   0.0 |  3.73
Output  | 0          | 0          | 0          |   0.0 |  0.00
Modify  | 6.17e-06   | 6.17e-06   | 6.17e-06   |   0.0 |  2.02
Other   |            | 8.394e-05  |            |       | 27.48

Nlocal:        19.0000 ave          19 max          19 min
Histogram: 1 0 0 0 0 0 0 0 0 0
Nghost:        9.00000 ave           9 max           9 min
Histogram: 1 0 0 0 0 0 0 0 0 0
Neighs:        0.00000 ave           0 max           0 min
Histogram: 1 0 0 0 0 0 0 0 0 0

Total # of neighbors = 0
Ave neighs/atom = 0.0000000
Ave special neighs/atom = 5.6842105
Neighbor list builds = 0
Dangerous builds = 0
fix		10 all nvt temp 300.0 300.0 10.0
run		100
Per MPI rank memory allocation (min/avg/max) = 8.866 | 8.866 | 8.866 Mbytes
Step Time TotEng PotEng KinEng Temp Press Pxx Pyy Pzz Pxy Pxz Pyz Lx Ly Lz 
    3356         1000    21502.973    21502.817   0.15594606    2.9064817    19946.293     36849.15    22924.329    65.399177    10838.592    24506.356   -1882.5966           20           20           20 
    3456         1100    21504.906    21488.285     16.62101    309.77802    20018.546    37006.482    23028.109    21.046506    10701.486    24224.661     -1697.82           20           20           20 
Loop time of 0.000269837 on 1 procs for 100 steps with 19 atoms

Performance: 32019.330 ns/day, 0.001 hours/ns, 370594.099 timesteps/s
100.1% CPU use with 1 MPI tasks x no OpenMP threads

MPI task timing breakdown:
Section |  min time  |  avg time  |  max time  |%varavg| %total
---------------------------------------------------------------
Pair    | 0          | 0          | 0          |   0.0 |  0.00
Bond    | 0.0001879  | 0.0001879  | 0.0001879  |   0.0 | 69.63
Neigh   | 1.19e-06   | 1.19e-06   | 1.19e-06   |   0.0 |  0.44
Comm    | 1.133e-05  | 1.133e-05  | 1.133e-05  |   0.0 |  4.20
Output  | 7.78e-06   | 7.78e-06   | 7.78e-06   |   0.0 |  2.88
Modify  | 4.726e-05  | 4.726e-05  | 4.726e-05  |   0.0 | 17.51
Other   |            | 1.438e-05  |            |       |  5.33

Nlocal:        19.0000 ave          19 max          19 min
Histogram: 1 0 0 0 0 0 0 0 0 0
Nghost:        10.0000 ave          10 max          10 min
Histogram: 1 0 0 0 0 0 0 0 0 0
Neighs:        0.00000 ave           0 max           0 min
Histogram: 1 0 0 0 0 0 0 0 0 0

Total # of neighbors = 0
Ave neighs/atom = 0.0000000
Ave special neighs/atom = 5.6842105
Neighbor list builds = 1
Dangerous builds = 0
unfix		10
unfix		2
group		holdgroup clear
next		a
jump 		in.pdms loop
group		holdgroup id >= $a
group		holdgroup id >= 12
10 atoms in group holdgroup
fix		2 holdgroup setforce 0.0 0.0 0.0
minimize 	1.0e-6 1.0e-8 1000 10000
WARNING: Using 'neigh_modify every 1 delay 0 check yes' setting during minimization (../min.cpp:187)
  Parameters for fire: 
    dmax delaystep dtgrow dtshrink alpha0 alphashrink tmax tmin    integrator halfstepback 
     0.1        20    1.1      0.5   0.25        0.99   10 0.02 eulerimplicit          yes 
Per MPI rank memory allocation (min/avg/max) = 8.866 | 8.866 | 8.866 Mbytes
Step Time TotEng PotEng KinEng Temp Press Pxx Pyy Pzz Pxy Pxz Pyz Lx Ly Lz 
    3456         1100    21488.285    21488.285            0            0    19923.573    36945.435    22992.856   -167.57217    10747.551     24324.44   -1769.8897           20           20           20 
    3478       1124.2    21488.244     21488.14   0.10400149    1.9383525     19944.31    36983.713    23010.621   -161.40476    10721.361    24335.795   -1777.8172           20           20           20 
Loop time of 9.6879e-05 on 1 procs for 22 steps with 19 atoms

99.1% CPU use with 1 MPI tasks x no OpenMP threads

Minimization stats:
  Stopping criterion = energy tolerance
  Energy initial, next-to-last, final = 
      21488.2850559598   21488.1533367421   21488.1400062368
  Force two-norm initial, final = 4.7597799 4.5006800
  Force max component initial, final = 2.9957781 2.6340749
  Final line search alpha, max atom move = 0.0000000 0.0000000
  Iterations, force evaluations = 22 23

MPI task timing breakdown:
Section |  min time  |  avg time  |  max time  |%varavg| %total
---------------------------------------------------------------
Pair    | 0          | 0          | 0          |   0.0 |  0.00
Bond    | 4.831e-05  | 4.831e-05  | 4.831e-05  |   0.0 | 49.87
Neigh   | 0          | 0          | 0          |   0.0 |  0.00
Comm    | 2.749e-06  | 2.749e-06  | 2.749e-06  |   0.0 |  2.84
Output  | 0          | 0          | 0          |   0.0 |  0.00
Modify  | 1.55e-06   | 1.55e-06   | 1.55e-06   |   0.0 |  1.60
Other   |            | 4.427e-05  |            |       | 45.70

Nlocal:        19.0000 ave          19 max          19 min
Histogram: 1 0 0 0 0 0 0 0 0 0
Nghost:        10.0000 ave          10 max          10 min
Histogram: 1 0 0 0 0 0 0 0 0 0
Neighs:        0.00000 ave           0 max           0 min
Histogram: 1 0 0 0 0 0 0 0 0 0

Total # of neighbors = 0
Ave neighs/atom = 0.0000000
Ave special neighs/atom = 5.6842105
Neighbor list builds = 0
Dangerous builds = 0
fix		10 all nvt temp 300.0 300.0 10.0
run		100
Per MPI rank memory allocation (min/avg/max) = 8.866 | 8.866 | 8.866 Mbytes
Step Time TotEng PotEng KinEng Temp Press Pxx Pyy Pzz Pxy Pxz Pyz Lx Ly Lz 
    3478         1100    21488.244     21488.14   0.10400149    1.9383525     19944.31    36983.713    23010.621   -161.40476    10721.361    24335.795   -1777.8172           20           20           20 
    3578         1200    21498.126    21478.802    19.324562    360.16612    19874.329    37021.136    23071.048   -469.19782    10662.647    23906.362   -1494.3501           20           20           20 
Loop time of 0.000269937 on 1 procs for 100 steps with 19 atoms

Performance: 32007.468 ns/day, 0.001 hours/ns, 370456.810 timesteps/s
100.0% CPU use with 1 MPI tasks x no OpenMP threads

MPI task timing breakdown:
Section |  min time  |  avg time  |  max time  |%varavg| %total
---------------------------------------------------------------
Pair    | 0          | 0          | 0          |   0.0 |  0.00
Bond    | 0.00018836 | 0.00018836 | 0.00018836 |   0.0 | 69.78
Neigh   | 1.49e-06   | 1.49e-06   | 1.49e-06   |   0.0 |  0.55
Comm    | 1.153e-05  | 1.153e-05  | 1.153e-05  |   0.0 |  4.27
Output  | 7.32e-06   | 7.32e-06   | 7.32e-06   |   0.0 |  2.71
Modify  | 4.73e-05   | 4.73e-05   | 4.73e-05   |   0.0 | 17.52
Other   |            | 1.394e-05  |            |       |  5.16

Nlocal:        19.0000 ave          19 max          19 min
Histogram: 1 0 0 0 0 0 0 0 0 0
Nghost:        10.0000 ave          10 max          10 min
Histogram: 1 0 0 0 0 0 0 0 0 0
Neighs:        0.00000 ave           0 max           0 min
Histogram: 1 0 0 0 0 0 0 0 0 0

Total # of neighbors = 0
Ave neighs/atom = 0.0000000
Ave special neighs/atom = 5.6842105
Neighbor list builds = 1
Dangerous builds = 0
unfix		10
unfix		2
group		holdgroup clear
next		a
jump 		in.pdms loop
group		holdgroup id >= $a
group		holdgroup id >= 13
10 atoms in group holdgroup
fix		2 holdgroup setforce 0.0 0.0 0.0
minimize 	1.0e-6 1.0e-8 1000 10000
WARNING: Using 'neigh_modify every 1 delay 0 check yes' setting during minimization (../min.cpp:187)
  Parameters for fire: 
    dmax delaystep dtgrow dtshrink alpha0 alphashrink tmax tmin    integrator halfstepback 
     0.1        20    1.1      0.5   0.25        0.99   10 0.02 eulerimplicit          yes 
Per MPI rank memory allocation (min/avg/max) = 8.866 | 8.866 | 8.866 Mbytes
Step Time TotEng PotEng KinEng Temp Press Pxx Pyy Pzz Pxy Pxz Pyz Lx Ly Lz 
    3578         1200    21478.802    21478.802            0            0    19763.907    36940.369    23018.314   -666.96007    10727.315    24028.891   -1589.2938           20           20           20 
    3600       1224.2     21478.77     21478.69  0.080034212    1.4916567     19810.66    36980.172    23037.048   -585.23977    10699.724    24065.601   -1610.7849           20           20           20 
Loop time of 0.000104358 on 1 procs for 22 steps with 19 atoms

100.6% CPU use with 1 MPI tasks x no OpenMP threads

Minimization stats:
  Stopping criterion = energy tolerance
  Energy initial, next-to-last, final = 
      21478.8017213001   21478.6996313747   21478.6903388041
  Force two-norm initial, final = 4.3814933 3.5606500
  Force max component initial, final = 1.6296895 1.1876084
  Final line search alpha, max atom move = 0.0000000 0.0000000
  Iterations, force evaluations = 22 23

MPI task timing breakdown:
Section |  min time  |  avg time  |  max time  |%varavg| %total
---------------------------------------------------------------
Pair    | 0          | 0          | 0          |   0.0 |  0.00
Bond    | 5.1079e-05 | 5.1079e-05 | 5.1079e-05 |   0.0 | 48.95
Neigh   | 0          | 0          | 0          |   0.0 |  0.00
Comm    | 2.86e-06   | 2.86e-06   | 2.86e-06   |   0.0 |  2.74
Output  | 0          | 0          | 0          |   0.0 |  0.00
Modify  | 1.66e-06   | 1.66e-06   | 1.66e-06   |   0.0 |  1.59
Other   |            | 4.876e-05  |            |       | 46.72

Nlocal:        19.0000 ave          19 max          19 min
Histogram: 1 0 0 0 0 0 0 0 0 0
Nghost:        8.00000 ave           8 max           8 min
Histogram: 1 0 0 0 0 0 0 0 0 0
Neighs:        0.00000 ave           0 max           0 min
Histogram: 1 0 0 0 0 0 0 0 0 0

Total # of neighbors = 0
Ave neighs/atom = 0.0000000
Ave special neighs/atom = 5.6842105
Neighbor list builds = 0
Dangerous builds = 0
fix		10 all nvt temp 300.0 300.0 10.0
run		100
Per MPI rank memory allocation (min/avg/max) = 8.866 | 8.866 | 8.866 Mbytes
Step Time TotEng PotEng KinEng Temp Press Pxx Pyy Pzz Pxy Pxz Pyz Lx Ly Lz 
    3600         1200     21478.77     21478.69  0.080034212    1.4916567     19810.66    36980.172    23037.048   -585.23977    10699.724    24065.601   -1610.7849           20           20           20 
    3700         1300    21495.817    21475.289    20.527928    382.59414    20023.225    37365.026    23264.929   -560.27942    10399.013     24142.78   -1664.6773           20           20           20 
Loop time of 0.000274327 on 1 procs for 100 steps with 19 atoms

Performance: 31495.259 ns/day, 0.001 hours/ns, 364528.464 timesteps/s
99.9% CPU use with 1 MPI tasks x no OpenMP threads

MPI task timing breakdown:
Section |  min time  |  avg time  |  max time  |%varavg| %total
---------------------------------------------------------------
Pair    | 0          | 0          | 0          |   0.0 |  0.00
Bond    | 0.00019078 | 0.00019078 | 0.00019078 |   0.0 | 69.54
Neigh   | 1.07e-06   | 1.07e-06   | 1.07e-06   |   0.0 |  0.39
Comm    | 1.264e-05  | 1.264e-05  | 1.264e-05  |   0.0 |  4.61
Output  | 7.56e-06   | 7.56e-06   | 7.56e-06   |   0.0 |  2.76
Modify  | 4.78e-05   | 4.78e-05   | 4.78e-05   |   0.0 | 17.42
Other   |            | 1.448e-05  |            |       |  5.28

Nlocal:        19.0000 ave          19 max          19 min
Histogram: 1 0 0 0 0 0 0 0 0 0
Nghost:        8.00000 ave           8 max           8 min
Histogram: 1 0 0 0 0 0 0 0 0 0
Neighs:        0.00000 ave           0 max           0 min
Histogram: 1 0 0 0 0 0 0 0 0 0

Total # of neighbors = 0
Ave neighs/atom = 0.0000000
Ave special neighs/atom = 5.6842105
Neighbor list builds = 1
Dangerous builds = 0
unfix		10
unfix		2
group		holdgroup clear
next		a
jump 		in.pdms loop
group		holdgroup id >= $a
group		holdgroup id >= 14
10 atoms in group holdgroup
fix		2 holdgroup setforce 0.0 0.0 0.0
minimize 	1.0e-6 1.0e-8 1000 10000
WARNING: Using 'neigh_modify every 1 delay 0 check yes' setting during minimization (../min.cpp:187)
  Parameters for fire: 
    dmax delaystep dtgrow dtshrink alpha0 alphashrink tmax tmin    integrator halfstepback 
     0.1        20    1.1      0.5   0.25        0.99   10 0.02 eulerimplicit          yes 
Per MPI rank memory allocation (min/avg/max) = 8.866 | 8.866 | 8.866 Mbytes
Step Time TotEng PotEng KinEng Temp Press Pxx Pyy Pzz Pxy Pxz Pyz Lx Ly Lz 
    3700         1300    21475.289    21475.289            0            0    19905.928    37241.825    23180.638    -704.6796    10499.183    24275.176   -1772.0684           20           20           20 
    3736    1450.3809    21474.894    21473.999   0.89507484     16.68217    20075.833    37261.379    23190.227   -224.10798    10487.703    24270.448   -1735.3064           20           20           20 
Loop time of 0.000136668 on 1 procs for 36 steps with 19 atoms

99.5% CPU use with 1 MPI tasks x no OpenMP threads

Minimization stats:
  Stopping criterion = energy tolerance
  Energy initial, next-to-last, final = 
      21475.2892561749   21473.9874785614       21473.999284
  Force two-norm initial, final = 8.4590146 38.045595
  Force max component initial, final = 5.4709661 17.828082
  Final line search alpha, max atom move = 0.0000000 0.0000000
  Iterations, force evaluations = 36 37

MPI task timing breakdown:
Section |  min time  |  avg time  |  max time  |%varavg| %total
---------------------------------------------------------------
Pair    | 0          | 0          | 0          |   0.0 |  0.00
Bond    | 7.8029e-05 | 7.8029e-05 | 7.8029e-05 |   0.0 | 57.09
Neigh   | 0          | 0          | 0          |   0.0 |  0.00
Comm    | 4.08e-06   | 4.08e-06   | 4.08e-06   |   0.0 |  2.99
Output  | 0          | 0          | 0          |   0.0 |  0.00
Modify  | 2.43e-06   | 2.43e-06   | 2.43e-06   |   0.0 |  1.78
Other   |            | 5.213e-05  |            |       | 38.14

Nlocal:        19.0000 ave          19 max          19 min
Histogram: 1 0 0 0 0 0 0 0 0 0
Nghost:        8.00000 ave           8 max           8 min
Histogram: 1 0 0 0 0 0 0 0 0 0
Neighs:        0.00000 ave           0 max           0 min
Histogram: 1 0 0 0 0 0 0 0 0 0

Total # of neighbors = 0
Ave neighs/atom = 0.0000000
Ave special neighs/atom = 5.6842105
Neighbor list builds = 0
Dangerous builds = 0
fix		10 all nvt temp 300.0 300.0 10.0
run		100
Per MPI rank memory allocation (min/avg/max) = 8.866 | 8.866 | 8.866 Mbytes
Step Time TotEng PotEng KinEng Temp Press Pxx Pyy Pzz Pxy Pxz Pyz Lx Ly Lz 
    3736         1300    21474.894    21473.999   0.89507484     16.68217    20075.833    37261.379    23190.227   -224.10798    10487.703    24270.448   -1735.3064           20           20           20 
    3836         1400    21500.534    21484.136    16.397354    305.60957    19062.679    36684.634    23006.578    -2503.174    10844.915    23065.818   -1038.2919           20           20           20 
Loop time of 0.000274387 on 1 procs for 100 steps with 19 atoms

Performance: 31488.372 ns/day, 0.001 hours/ns, 364448.753 timesteps/s
99.9% CPU use with 1 MPI tasks x no OpenMP threads

MPI task timing breakdown:
Section |  min time  |  avg time  |  max time  |%varavg| %total
---------------------------------------------------------------
Pair    | 0          | 0          | 0          |   0.0 |  0.00
Bond    | 0.0001907  | 0.0001907  | 0.0001907  |   0.0 | 69.50
Neigh   | 1.05e-06   | 1.05e-06   | 1.05e-06   |   0.0 |  0.38
Comm    | 1.27e-05   | 1.27e-05   | 1.27e-05   |   0.0 |  4.63
Output  | 7.4e-06    | 7.4e-06    | 7.4e-06    |   0.0 |  2.70
Modify  | 4.7838e-05 | 4.7838e-05 | 4.7838e-05 |   0.0 | 17.43
Other   |            | 1.47e-05   |            |       |  5.36

Nlocal:        19.0000 ave          19 max          19 min
Histogram: 1 0 0 0 0 0 0 0 0 0
Nghost:        8.00000 ave           8 max           8 min
Histogram: 1 0 0 0 0 0 0 0 0 0
Neighs:        0.00000 ave           0 max           0 min
Histogram: 1 0 0 0 0 0 0 0 0 0

Total # of neighbors = 0
Ave neighs/atom = 0.0000000
Ave special neighs/atom = 5.6842105
Neighbor list builds = 1
Dangerous builds = 0
unfix		10
unfix		2
group		holdgroup clear
next		a
jump 		in.pdms loop
group		holdgroup id >= $a
group		holdgroup id >= 15
10 atoms in group holdgroup
fix		2 holdgroup setforce 0.0 0.0 0.0
minimize 	1.0e-6 1.0e-8 1000 10000
WARNING: Using 'neigh_modify every 1 delay 0 check yes' setting during minimization (../min.cpp:187)
  Parameters for fire: 
    dmax delaystep dtgrow dtshrink alpha0 alphashrink tmax tmin    integrator halfstepback 
     0.1        20    1.1      0.5   0.25        0.99   10 0.02 eulerimplicit          yes 
Per MPI rank memory allocation (min/avg/max) = 8.866 | 8.866 | 8.866 Mbytes
Step Time TotEng PotEng KinEng Temp Press Pxx Pyy Pzz Pxy Pxz Pyz Lx Ly Lz 
    3836         1400    21484.136    21484.136            0            0    18968.984    36586.027    22930.805   -2609.8792    10905.539     23156.15   -1110.6744           20           20           20 
    3975    1621.9454    21473.485    21473.379   0.10577778    1.9714586    19797.083    37098.311    23124.226   -831.28862    10592.846    23942.521   -1536.7177           20           20           20 
Loop time of 0.000421455 on 1 procs for 139 steps with 19 atoms

99.9% CPU use with 1 MPI tasks x no OpenMP threads

Minimization stats:
  Stopping criterion = energy tolerance
  Energy initial, next-to-last, final = 
      21484.1361765101   21473.3918107413   21473.3789998692
  Force two-norm initial, final = 58.050433 2.9476853
  Force max component initial, final = 29.767371 1.2692744
  Final line search alpha, max atom move = 0.0000000 0.0000000
  Iterations, force evaluations = 139 144

MPI task timing breakdown:
Section |  min time  |  avg time  |  max time  |%varavg| %total
---------------------------------------------------------------
Pair    | 0          | 0          | 0          |   0.0 |  0.00
Bond    | 0.00029459 | 0.00029459 | 0.00029459 |   0.0 | 69.90
Neigh   | 0          | 0          | 0          |   0.0 |  0.00
Comm    | 1.514e-05  | 1.514e-05  | 1.514e-05  |   0.0 |  3.59
Output  | 0          | 0          | 0          |   0.0 |  0.00
Modify  | 8.778e-06  | 8.778e-06  | 8.778e-06  |   0.0 |  2.08
Other   |            | 0.0001029  |            |       | 24.43

Nlocal:        19.0000 ave          19 max          19 min
Histogram: 1 0 0 0 0 0 0 0 0 0
Nghost:        6.00000 ave           6 max           6 min
Histogram: 1 0 0 0 0 0 0 0 0 0
Neighs:        0.00000 ave           0 max           0 min
Histogram: 1 0 0 0 0 0 0 0 0 0

Total # of neighbors = 0
Ave neighs/atom = 0.0000000
Ave special neighs/atom = 5.6842105
Neighbor list builds = 0
Dangerous builds = 0
fix		10 all nvt temp 300.0 300.0 10.0
run		100
Per MPI rank memory allocation (min/avg/max) = 8.866 | 8.866 | 8.866 Mbytes
Step Time TotEng PotEng KinEng Temp Press Pxx Pyy Pzz Pxy Pxz Pyz Lx Ly Lz 
    3975         1400    21473.485    21473.379   0.10577778    1.9714586    19797.083    37098.311    23124.226   -831.28862    10592.846    23942.521   -1536.7177           20           20           20 
    4000         1425    21474.916    21473.006     1.910434    35.606168    19907.412    37171.228    23154.012   -603.00599    10545.226    24030.391   -1586.5719           20           20           20 
    4075         1500    21499.659    21478.527    21.131798    393.84891    20181.544    37111.463    23210.215    222.95266    10596.642    24034.774   -1529.1911           20           20           20 
Loop time of 0.000302926 on 1 procs for 100 steps with 19 atoms

Performance: 28521.817 ns/day, 0.001 hours/ns, 330113.625 timesteps/s
100.0% CPU use with 1 MPI tasks x no OpenMP threads

MPI task timing breakdown:
Section |  min time  |  avg time  |  max time  |%varavg| %total
---------------------------------------------------------------
Pair    | 0          | 0          | 0          |   0.0 |  0.00
Bond    | 0.00018985 | 0.00018985 | 0.00018985 |   0.0 | 62.67
Neigh   | 1.13e-06   | 1.13e-06   | 1.13e-06   |   0.0 |  0.37
Comm    | 1.138e-05  | 1.138e-05  | 1.138e-05  |   0.0 |  3.76
Output  | 3.9749e-05 | 3.9749e-05 | 3.9749e-05 |   0.0 | 13.12
Modify  | 4.6549e-05 | 4.6549e-05 | 4.6549e-05 |   0.0 | 15.37
Other   |            | 1.427e-05  |            |       |  4.71

Nlocal:        19.0000 ave          19 max          19 min
Histogram: 1 0 0 0 0 0 0 0 0 0
Nghost:        6.00000 ave           6 max           6 min
Histogram: 1 0 0 0 0 0 0 0 0 0
Neighs:        0.00000 ave           0 max           0 min
Histogram: 1 0 0 0 0 0 0 0 0 0

Total # of neighbors = 0
Ave neighs/atom = 0.0000000
Ave special neighs/atom = 5.6842105
Neighbor list builds = 1
Dangerous builds = 0
unfix		10
unfix		2
group		holdgroup clear
next		a
jump 		in.pdms loop
group		holdgroup id >= $a
group		holdgroup id >= 16
10 atoms in group holdgroup
fix		2 holdgroup setforce 0.0 0.0 0.0
minimize 	1.0e-6 1.0e-8 1000 10000
WARNING: Using 'neigh_modify every 1 delay 0 check yes' setting during minimization (../min.cpp:187)
  Parameters for fire: 
    dmax delaystep dtgrow dtshrink alpha0 alphashrink tmax tmin    integrator halfstepback 
     0.1        20    1.1      0.5   0.25        0.99   10 0.02 eulerimplicit          yes 
Per MPI rank memory allocation (min/avg/max) = 8.866 | 8.866 | 8.866 Mbytes
Step Time TotEng PotEng KinEng Temp Press Pxx Pyy Pzz Pxy Pxz Pyz Lx Ly Lz 
    4075         1500    21478.527    21478.527            0            0    20060.796    36913.431    23081.836     187.1202    10695.309    24057.299    -1532.381           20           20           20 
    4133    1555.0637    21472.964    21472.827   0.13666784    2.5471794    20111.218    37284.745    23228.507    -179.5994    10456.924    24266.687   -1723.7727           20           20           20 
Loop time of 0.000211498 on 1 procs for 58 steps with 19 atoms

98.3% CPU use with 1 MPI tasks x no OpenMP threads

Minimization stats:
  Stopping criterion = energy tolerance
  Energy initial, next-to-last, final = 
      21478.5269808792   21472.8443817182   21472.8272775722
  Force two-norm initial, final = 59.469362 5.8271946
  Force max component initial, final = 26.134104 3.4865633
  Final line search alpha, max atom move = 0.0000000 0.0000000
  Iterations, force evaluations = 58 61

MPI task timing breakdown:
Section |  min time  |  avg time  |  max time  |%varavg| %total
---------------------------------------------------------------
Pair    | 0          | 0          | 0          |   0.0 |  0.00
Bond    | 0.00013375 | 0.00013375 | 0.00013375 |   0.0 | 63.24
Neigh   | 0          | 0          | 0          |   0.0 |  0.00
Comm    | 6.02e-06   | 6.02e-06   | 6.02e-06   |   0.0 |  2.85
Output  | 0          | 0          | 0          |   0.0 |  0.00
Modify  | 3.67e-06   | 3.67e-06   | 3.67e-06   |   0.0 |  1.74
Other   |            | 6.806e-05  |            |       | 32.18

Nlocal:        19.0000 ave          19 max          19 min
Histogram: 1 0 0 0 0 0 0 0 0 0
Nghost:        6.00000 ave           6 max           6 min
Histogram: 1 0 0 0 0 0 0 0 0 0
Neighs:        0.00000 ave           0 max           0 min
Histogram: 1 0 0 0 0 0 0 0 0 0

Total # of neighbors = 0
Ave neighs/atom = 0.0000000
Ave special neighs/atom = 5.6842105
Neighbor list builds = 0
Dangerous builds = 0
fix		10 all nvt temp 300.0 300.0 10.0
run		100
Per MPI rank memory allocation (min/avg/max) = 8.866 | 8.866 | 8.866 Mbytes
Step Time TotEng PotEng KinEng Temp Press Pxx Pyy Pzz Pxy Pxz Pyz Lx Ly Lz 
    4133         1500    21472.964    21472.827   0.13666784    2.5471794    20111.218    37284.745    23228.507    -179.5994    10456.924    24266.687   -1723.7727           20           20           20 
    4233         1600    21503.892    21482.987    20.905096     389.6237    18709.457    36557.319     22830.38    -3259.329    10959.534    22702.196   -793.05303           20           20           20 
Loop time of 0.000275307 on 1 procs for 100 steps with 19 atoms

Performance: 31383.147 ns/day, 0.001 hours/ns, 363230.866 timesteps/s
99.9% CPU use with 1 MPI tasks x no OpenMP threads

MPI task timing breakdown:
Section |  min time  |  avg time  |  max time  |%varavg| %total
---------------------------------------------------------------
Pair    | 0          | 0          | 0          |   0.0 |  0.00
Bond    | 0.00019104 | 0.00019104 | 0.00019104 |   0.0 | 69.39
Neigh   | 1.05e-06   | 1.05e-06   | 1.05e-06   |   0.0 |  0.38
Comm    | 1.049e-05  | 1.049e-05  | 1.049e-05  |   0.0 |  3.81
Output  | 1.071e-05  | 1.071e-05  | 1.071e-05  |   0.0 |  3.89
Modify  | 4.7579e-05 | 4.7579e-05 | 4.7579e-05 |   0.0 | 17.28
Other   |            | 1.444e-05  |            |       |  5.25

Nlocal:        19.0000 ave          19 max          19 min
Histogram: 1 0 0 0 0 0 0 0 0 0
Nghost:        6.00000 ave           6 max           6 min
Histogram: 1 0 0 0 0 0 0 0 0 0
Neighs:        0.00000 ave           0 max           0 min
Histogram: 1 0 0 0 0 0 0 0 0 0

Total # of neighbors = 0
Ave neighs/atom = 0.0000000
Ave special neighs/atom = 5.6842105
Neighbor list builds = 1
Dangerous builds = 0
unfix		10
unfix		2
group		holdgroup clear
next		a
jump 		in.pdms loop
group		holdgroup id >= $a
group		holdgroup id >= 17
10 atoms in group holdgroup
fix		2 holdgroup setforce 0.0 0.0 0.0
minimize 	1.0e-6 1.0e-8 1000 10000
WARNING: Using 'neigh_modify every 1 delay 0 check yes' setting during minimization (../min.cpp:187)
  Parameters for fire: 
    dmax delaystep dtgrow dtshrink alpha0 alphashrink tmax tmin    integrator halfstepback 
     0.1        20    1.1      0.5   0.25        0.99   10 0.02 eulerimplicit          yes 
Per MPI rank memory allocation (min/avg/max) = 8.866 | 8.866 | 8.866 Mbytes
Step Time TotEng PotEng KinEng Temp Press Pxx Pyy Pzz Pxy Pxz Pyz Lx Ly Lz 
    4233         1600    21482.987    21482.987            0            0    18590.004    36451.246    22741.554   -3422.7875    11036.501    22809.213   -876.18613           20           20           20 
    4291    1655.0637    21473.436    21473.298   0.13843457    2.5801072    19691.671    37093.527    23125.368   -1143.8822    10586.581    23854.612   -1492.1111           20           20           20 
Loop time of 0.000192088 on 1 procs for 58 steps with 19 atoms

100.0% CPU use with 1 MPI tasks x no OpenMP threads

Minimization stats:
  Stopping criterion = energy tolerance
  Energy initial, next-to-last, final = 
      21482.9873794776   21473.3135665772   21473.2977645137
  Force two-norm initial, final = 101.37095 5.3254202
  Force max component initial, final = 36.605426 3.2748751
  Final line search alpha, max atom move = 0.0000000 0.0000000
  Iterations, force evaluations = 58 61

MPI task timing breakdown:
Section |  min time  |  avg time  |  max time  |%varavg| %total
---------------------------------------------------------------
Pair    | 0          | 0          | 0          |   0.0 |  0.00
Bond    | 0.00012198 | 0.00012198 | 0.00012198 |   0.0 | 63.50
Neigh   | 0          | 0          | 0          |   0.0 |  0.00
Comm    | 6.09e-06   | 6.09e-06   | 6.09e-06   |   0.0 |  3.17
Output  | 0          | 0          | 0          |   0.0 |  0.00
Modify  | 3.72e-06   | 3.72e-06   | 3.72e-06   |   0.0 |  1.94
Other   |            | 6.03e-05   |            |       | 31.39

Nlocal:        19.0000 ave          19 max          19 min
Histogram: 1 0 0 0 0 0 0 0 0 0
Nghost:        6.00000 ave           6 max           6 min
Histogram: 1 0 0 0 0 0 0 0 0 0
Neighs:        0.00000 ave           0 max           0 min
Histogram: 1 0 0 0 0 0 0 0 0 0

Total # of neighbors = 0
Ave neighs/atom = 0.0000000
Ave special neighs/atom = 5.6842105
Neighbor list builds = 0
Dangerous builds = 0
fix		10 all nvt temp 300.0 300.0 10.0
run		100
Per MPI rank memory allocation (min/avg/max) = 8.866 | 8.866 | 8.866 Mbytes
Step Time TotEng PotEng KinEng Temp Press Pxx Pyy Pzz Pxy Pxz Pyz Lx Ly Lz 
    4291         1600    21473.436    21473.298   0.13843457    2.5801072    19691.671    37093.527    23125.368   -1143.8822    10586.581    23854.612   -1492.1111           20           20           20 
    4391         1700    21502.424      21481.4    21.023636    391.83301    20278.738    37294.314    23234.614    307.28577    10422.031    24287.654   -1714.1927           20           20           20 
Loop time of 0.000267427 on 1 procs for 100 steps with 19 atoms

Performance: 32307.882 ns/day, 0.001 hours/ns, 373933.821 timesteps/s
100.2% CPU use with 1 MPI tasks x no OpenMP threads

MPI task timing breakdown:
Section |  min time  |  avg time  |  max time  |%varavg| %total
---------------------------------------------------------------
Pair    | 0          | 0          | 0          |   0.0 |  0.00
Bond    | 0.00018878 | 0.00018878 | 0.00018878 |   0.0 | 70.59
Neigh   | 0          | 0          | 0          |   0.0 |  0.00
Comm    | 1.097e-05  | 1.097e-05  | 1.097e-05  |   0.0 |  4.10
Output  | 7.2e-06    | 7.2e-06    | 7.2e-06    |   0.0 |  2.69
Modify  | 4.661e-05  | 4.661e-05  | 4.661e-05  |   0.0 | 17.43
Other   |            | 1.387e-05  |            |       |  5.19

Nlocal:        19.0000 ave          19 max          19 min
Histogram: 1 0 0 0 0 0 0 0 0 0
Nghost:        6.00000 ave           6 max           6 min
Histogram: 1 0 0 0 0 0 0 0 0 0
Neighs:        0.00000 ave           0 max           0 min
Histogram: 1 0 0 0 0 0 0 0 0 0

Total # of neighbors = 0
Ave neighs/atom = 0.0000000
Ave special neighs/atom = 5.6842105
Neighbor list builds = 0
Dangerous builds = 0
unfix		10
unfix		2
group		holdgroup clear
next		a
jump 		in.pdms loop
group		holdgroup id >= $a
group		holdgroup id >= 18
10 atoms in group holdgroup
fix		2 holdgroup setforce 0.0 0.0 0.0
minimize 	1.0e-6 1.0e-8 1000 10000
WARNING: Using 'neigh_modify every 1 delay 0 check yes' setting during minimization (../min.cpp:187)
  Parameters for fire: 
    dmax delaystep dtgrow dtshrink alpha0 alphashrink tmax tmin    integrator halfstepback 
     0.1        20    1.1      0.5   0.25        0.99   10 0.02 eulerimplicit          yes 
Per MPI rank memory allocation (min/avg/max) = 8.866 | 8.866 | 8.866 Mbytes
Step Time TotEng PotEng KinEng Temp Press Pxx Pyy Pzz Pxy Pxz Pyz Lx Ly Lz 
    4391         1700      21481.4      21481.4            0            0    20158.608    37180.503    23043.352     251.9696    10494.634    24316.144   -1773.5051           20           20           20 
    4447    1739.9436    21472.347    21472.265  0.081678363    1.5222999    20196.906    37315.141    23220.605    54.973404    10441.324    24247.742   -1693.1214           20           20           20 
Loop time of 0.000189208 on 1 procs for 56 steps with 19 atoms

99.9% CPU use with 1 MPI tasks x no OpenMP threads

Minimization stats:
  Stopping criterion = energy tolerance
  Energy initial, next-to-last, final = 
      21481.4003536348   21472.2749194402   21472.2648887334
  Force two-norm initial, final = 100.20964 5.8754796
  Force max component initial, final = 48.265779 2.9354272
  Final line search alpha, max atom move = 0.0000000 0.0000000
  Iterations, force evaluations = 56 59

MPI task timing breakdown:
Section |  min time  |  avg time  |  max time  |%varavg| %total
---------------------------------------------------------------
Pair    | 0          | 0          | 0          |   0.0 |  0.00
Bond    | 0.00011795 | 0.00011795 | 0.00011795 |   0.0 | 62.34
Neigh   | 0          | 0          | 0          |   0.0 |  0.00
Comm    | 5.84e-06   | 5.84e-06   | 5.84e-06   |   0.0 |  3.09
Output  | 0          | 0          | 0          |   0.0 |  0.00
Modify  | 3.52e-06   | 3.52e-06   | 3.52e-06   |   0.0 |  1.86
Other   |            | 6.19e-05   |            |       | 32.72

Nlocal:        19.0000 ave          19 max          19 min
Histogram: 1 0 0 0 0 0 0 0 0 0
Nghost:        6.00000 ave           6 max           6 min
Histogram: 1 0 0 0 0 0 0 0 0 0
Neighs:        0.00000 ave           0 max           0 min
Histogram: 1 0 0 0 0 0 0 0 0 0

[...]
Loop time of 0.000282126 on 1 procs for 100 steps with 19 atoms

Performance: 30624.615 ns/day, 0.001 hours/ns, 354451.557 timesteps/s
100.0% CPU use with 1 MPI tasks x no OpenMP threads

MPI task timing breakdown:
Section |  min time  |  avg time  |  max time  |%varavg| %total
---------------------------------------------------------------
Pair    | 0          | 0          | 0          |   0.0 |  0.00
Bond    | 0.00019913 | 0.00019913 | 0.00019913 |   0.0 | 70.58
Neigh   | 0          | 0          | 0          |   0.0 |  0.00
Comm    | 1.624e-05  | 1.624e-05  | 1.624e-05  |   0.0 |  5.76
Output  | 6.589e-06  | 6.589e-06  | 6.589e-06  |   0.0 |  2.34
Modify  | 4.5559e-05 | 4.5559e-05 | 4.5559e-05 |   0.0 | 16.15
Other   |            | 1.461e-05  |            |       |  5.18

Nlocal:        19.0000 ave          19 max          19 min
Histogram: 1 0 0 0 0 0 0 0 0 0
Nghost:        20.0000 ave          20 max          20 min
Histogram: 1 0 0 0 0 0 0 0 0 0
Neighs:        0.00000 ave           0 max           0 min
Histogram: 1 0 0 0 0 0 0 0 0 0

Total # of neighbors = 0
Ave neighs/atom = 0.0000000
Ave special neighs/atom = 5.6842105
Neighbor list builds = 0
Dangerous builds = 0
unfix		10
unfix		2
group		holdgroup clear
next		a
jump 		in.pdms loop
group		holdgroup id >= $a
group		holdgroup id >= 298
0 atoms in group holdgroup
fix		2 holdgroup setforce 0.0 0.0 0.0
minimize 	1.0e-6 1.0e-8 1000 10000
WARNING: Using 'neigh_modify every 1 delay 0 check yes' setting during minimization (../min.cpp:187)
  Parameters for fire: 
    dmax delaystep dtgrow dtshrink alpha0 alphashrink tmax tmin    integrator halfstepback 
     0.1        20    1.1      0.5   0.25        0.99   10 0.02 eulerimplicit          yes 
Per MPI rank memory allocation (min/avg/max) = 8.866 | 8.866 | 8.866 Mbytes
Step Time TotEng PotEng KinEng Temp Press Pxx Pyy Pzz Pxy Pxz Pyz Lx Ly Lz 
   52426        29700    913.87135    913.87135            0            0    30.819301    72.291281    21.552762   -1.3861394   -84.224773   -20.448771    44.371838           20           20           20 
   52448      29724.2    913.86601    913.85295  0.013063732    0.2434784    15.140911    24.636853    13.062959     7.722922   -13.413004   -12.834379    4.6328748           20           20           20 
Loop time of 0.000102309 on 1 procs for 22 steps with 19 atoms

100.7% CPU use with 1 MPI tasks x no OpenMP threads

Minimization stats:
  Stopping criterion = energy tolerance
  Energy initial, next-to-last, final = 
      913.871353610056   913.853430140262   913.852949135179
  Force two-norm initial, final = 2.4768014 0.40439325
  Force max component initial, final = 0.94324111 0.1154665
  Final line search alpha, max atom move = 0.0000000 0.0000000
  Iterations, force evaluations = 22 23

MPI task timing breakdown:
Section |  min time  |  avg time  |  max time  |%varavg| %total
---------------------------------------------------------------
Pair    | 0          | 0          | 0          |   0.0 |  0.00
Bond    | 5.1089e-05 | 5.1089e-05 | 5.1089e-05 |   0.0 | 49.94
Neigh   | 0          | 0          | 0          |   0.0 |  0.00
Comm    | 3.98e-06   | 3.98e-06   | 3.98e-06   |   0.0 |  3.89
Output  | 0          | 0          | 0          |   0.0 |  0.00
Modify  | 1.07e-06   | 1.07e-06   | 1.07e-06   |   0.0 |  1.05
Other   |            | 4.617e-05  |            |       | 45.13

Nlocal:        19.0000 ave          19 max          19 min
Histogram: 1 0 0 0 0 0 0 0 0 0
Nghost:        20.0000 ave          20 max          20 min
Histogram: 1 0 0 0 0 0 0 0 0 0
Neighs:        0.00000 ave           0 max           0 min
Histogram: 1 0 0 0 0 0 0 0 0 0

Total # of neighbors = 0
Ave neighs/atom = 0.0000000
Ave special neighs/atom = 5.6842105
Neighbor list builds = 0
Dangerous builds = 0
fix		10 all nvt temp 300.0 300.0 10.0
run		100
Per MPI rank memory allocation (min/avg/max) = 8.866 | 8.866 | 8.866 Mbytes
Step Time TotEng PotEng KinEng Temp Press Pxx Pyy Pzz Pxy Pxz Pyz Lx Ly Lz 
   52448        29700    913.86601    913.85295  0.013063732    0.2434784    15.140911    24.636853    13.062959     7.722922   -13.413004   -12.834379    4.6328748           20           20           20 
   52548        29800     925.7674    915.11467    10.652729    198.54278    672.97143     1241.568    253.05838    524.28795   -233.99898   -702.80109    58.072336           20           20           20 
Loop time of 0.000283767 on 1 procs for 100 steps with 19 atoms

Performance: 30447.515 ns/day, 0.001 hours/ns, 352401.794 timesteps/s
100.1% CPU use with 1 MPI tasks x no OpenMP threads

MPI task timing breakdown:
Section |  min time  |  avg time  |  max time  |%varavg| %total
---------------------------------------------------------------
Pair    | 0          | 0          | 0          |   0.0 |  0.00
Bond    | 0.00019956 | 0.00019956 | 0.00019956 |   0.0 | 70.32
Neigh   | 0          | 0          | 0          |   0.0 |  0.00
Comm    | 1.634e-05  | 1.634e-05  | 1.634e-05  |   0.0 |  5.76
Output  | 7.41e-06   | 7.41e-06   | 7.41e-06   |   0.0 |  2.61
Modify  | 4.562e-05  | 4.562e-05  | 4.562e-05  |   0.0 | 16.08
Other   |            | 1.484e-05  |            |       |  5.23

Nlocal:        19.0000 ave          19 max          19 min
Histogram: 1 0 0 0 0 0 0 0 0 0
Nghost:        20.0000 ave          20 max          20 min
Histogram: 1 0 0 0 0 0 0 0 0 0
Neighs:        0.00000 ave           0 max           0 min
Histogram: 1 0 0 0 0 0 0 0 0 0

Total # of neighbors = 0
Ave neighs/atom = 0.0000000
Ave special neighs/atom = 5.6842105
Neighbor list builds = 0
Dangerous builds = 0
unfix		10
unfix		2
group		holdgroup clear
next		a
jump 		in.pdms loop
group		holdgroup id >= $a
group		holdgroup id >= 299
0 atoms in group holdgroup
fix		2 holdgroup setforce 0.0 0.0 0.0
minimize 	1.0e-6 1.0e-8 1000 10000
WARNING: Using 'neigh_modify every 1 delay 0 check yes' setting during minimization (../min.cpp:187)
  Parameters for fire: 
    dmax delaystep dtgrow dtshrink alpha0 alphashrink tmax tmin    integrator halfstepback 
     0.1        20    1.1      0.5   0.25        0.99   10 0.02 eulerimplicit          yes 
Per MPI rank memory allocation (min/avg/max) = 8.866 | 8.866 | 8.866 Mbytes
Step Time TotEng PotEng KinEng Temp Press Pxx Pyy Pzz Pxy Pxz Pyz Lx Ly Lz 
   52548        29800    915.11467    915.11467            0            0    612.10137    1167.5886     216.2367    452.47882   -240.06828   -737.53231    48.918797           20           20           20 
   52602    29828.938    913.85392    913.85347 0.00044309004 0.0082581959    29.962866    47.245565    15.498482    27.144549    4.1073724   -34.761639    -7.212796           20           20           20 
Loop time of 0.000201018 on 1 procs for 54 steps with 19 atoms

99.5% CPU use with 1 MPI tasks x no OpenMP threads

Minimization stats:
  Stopping criterion = energy tolerance
  Energy initial, next-to-last, final = 
      915.114667464958   913.853516408367    913.85347353009
  Force two-norm initial, final = 43.006551 0.45699224
  Force max component initial, final = 30.368267 0.1365361
  Final line search alpha, max atom move = 0.0000000 0.0000000
  Iterations, force evaluations = 54 57

MPI task timing breakdown:
Section |  min time  |  avg time  |  max time  |%varavg| %total
---------------------------------------------------------------
Pair    | 0          | 0          | 0          |   0.0 |  0.00
Bond    | 0.00012307 | 0.00012307 | 0.00012307 |   0.0 | 61.22
Neigh   | 0          | 0          | 0          |   0.0 |  0.00
Comm    | 9.84e-06   | 9.84e-06   | 9.84e-06   |   0.0 |  4.90
Output  | 0          | 0          | 0          |   0.0 |  0.00
Modify  | 2.53e-06   | 2.53e-06   | 2.53e-06   |   0.0 |  1.26
Other   |            | 6.558e-05  |            |       | 32.62

Nlocal:        19.0000 ave          19 max          19 min
Histogram: 1 0 0 0 0 0 0 0 0 0
Nghost:        20.0000 ave          20 max          20 min
Histogram: 1 0 0 0 0 0 0 0 0 0
Neighs:        0.00000 ave           0 max           0 min
Histogram: 1 0 0 0 0 0 0 0 0 0

Total # of neighbors = 0
Ave neighs/atom = 0.0000000
Ave special neighs/atom = 5.6842105
Neighbor list builds = 0
Dangerous builds = 0
fix		10 all nvt temp 300.0 300.0 10.0
run		100
Per MPI rank memory allocation (min/avg/max) = 8.866 | 8.866 | 8.866 Mbytes
Step Time TotEng PotEng KinEng Temp Press Pxx Pyy Pzz Pxy Pxz Pyz Lx Ly Lz 
   52602        29800    913.85392    913.85347 0.00044309004 0.0082581959    29.962866    47.245565    15.498482    27.144549    4.1073724   -34.761639    -7.212796           20           20           20 
   52702        29900     914.9975     914.0732   0.92430478     17.22695    359.62094      582.447    137.24594    359.16986    114.28587   -451.08937   -115.14172           20           20           20 
Loop time of 0.000283717 on 1 procs for 100 steps with 19 atoms

Performance: 30452.881 ns/day, 0.001 hours/ns, 352463.899 timesteps/s
100.1% CPU use with 1 MPI tasks x no OpenMP threads

MPI task timing breakdown:
Section |  min time  |  avg time  |  max time  |%varavg| %total
---------------------------------------------------------------
Pair    | 0          | 0          | 0          |   0.0 |  0.00
Bond    | 0.00019938 | 0.00019938 | 0.00019938 |   0.0 | 70.27
Neigh   | 0          | 0          | 0          |   0.0 |  0.00
Comm    | 1.617e-05  | 1.617e-05  | 1.617e-05  |   0.0 |  5.70
Output  | 7.5e-06    | 7.5e-06    | 7.5e-06    |   0.0 |  2.64
Modify  | 4.572e-05  | 4.572e-05  | 4.572e-05  |   0.0 | 16.11
Other   |            | 1.495e-05  |            |       |  5.27

Nlocal:        19.0000 ave          19 max          19 min
Histogram: 1 0 0 0 0 0 0 0 0 0
Nghost:        20.0000 ave          20 max          20 min
Histogram: 1 0 0 0 0 0 0 0 0 0
Neighs:        0.00000 ave           0 max           0 min
Histogram: 1 0 0 0 0 0 0 0 0 0

Total # of neighbors = 0
Ave neighs/atom = 0.0000000
Ave special neighs/atom = 5.6842105
Neighbor list builds = 0
Dangerous builds = 0
unfix		10
unfix		2
group		holdgroup clear
next		a
jump 		in.pdms loop
group		holdgroup id >= $a
group		holdgroup id >= 300
0 atoms in group holdgroup
fix		2 holdgroup setforce 0.0 0.0 0.0
minimize 	1.0e-6 1.0e-8 1000 10000
WARNING: Using 'neigh_modify every 1 delay 0 check yes' setting during minimization (../min.cpp:187)
  Parameters for fire: 
    dmax delaystep dtgrow dtshrink alpha0 alphashrink tmax tmin    integrator halfstepback 
     0.1        20    1.1      0.5   0.25        0.99   10 0.02 eulerimplicit          yes 
Per MPI rank memory allocation (min/avg/max) = 8.866 | 8.866 | 8.866 Mbytes
Step Time TotEng PotEng KinEng Temp Press Pxx Pyy Pzz Pxy Pxz Pyz Lx Ly Lz 
   52702        29900     914.0732     914.0732            0            0    354.33943    575.82614     131.7686    355.42354    114.08338   -447.23791   -114.77471           20           20           20 
   52756    29928.938    913.85392    913.85357 0.00035165157 0.0065539897    28.883315    47.820618    16.686047    22.143281   -6.9942562    -31.15223  -0.55439057           20           20           20 
Loop time of 0.000198138 on 1 procs for 54 steps with 19 atoms

99.4% CPU use with 1 MPI tasks x no OpenMP threads

Minimization stats:
  Stopping criterion = energy tolerance
  Energy initial, next-to-last, final = 
       914.07319511069   913.853608045316   913.853569285297
  Force two-norm initial, final = 6.6389671 0.45936468
  Force max component initial, final = 2.6758591 0.12588367
  Final line search alpha, max atom move = 0.0000000 0.0000000
  Iterations, force evaluations = 54 57

MPI task timing breakdown:
Section |  min time  |  avg time  |  max time  |%varavg| %total
---------------------------------------------------------------
Pair    | 0          | 0          | 0          |   0.0 |  0.00
Bond    | 0.00012303 | 0.00012303 | 0.00012303 |   0.0 | 62.09
Neigh   | 0          | 0          | 0          |   0.0 |  0.00
Comm    | 9.56e-06   | 9.56e-06   | 9.56e-06   |   0.0 |  4.82
Output  | 0          | 0          | 0          |   0.0 |  0.00
Modify  | 2.58e-06   | 2.58e-06   | 2.58e-06   |   0.0 |  1.30
Other   |            | 6.297e-05  |            |       | 31.78

Nlocal:        19.0000 ave          19 max          19 min
Histogram: 1 0 0 0 0 0 0 0 0 0
Nghost:        20.0000 ave          20 max          20 min
Histogram: 1 0 0 0 0 0 0 0 0 0
Neighs:        0.00000 ave           0 max           0 min
Histogram: 1 0 0 0 0 0 0 0 0 0

Total # of neighbors = 0
Ave neighs/atom = 0.0000000
Ave special neighs/atom = 5.6842105
Neighbor list builds = 0
Dangerous builds = 0
fix		10 all nvt temp 300.0 300.0 10.0
run		100
Per MPI rank memory allocation (min/avg/max) = 8.866 | 8.866 | 8.866 Mbytes
Step Time TotEng PotEng KinEng Temp Press Pxx Pyy Pzz Pxy Pxz Pyz Lx Ly Lz 
   52756        29900    913.85392    913.85357 0.00035165157 0.0065539897    28.883315    47.820618    16.686047    22.143281   -6.9942562    -31.15223  -0.55439057           20           20           20 
   52856        30000    914.97235    914.01062    0.9617216    17.924315    278.13691    481.37854    145.10853    207.92365   -100.83892   -304.25473     19.57986           20           20           20 
Loop time of 0.000288117 on 1 procs for 100 steps with 19 atoms

Performance: 29987.817 ns/day, 0.001 hours/ns, 347081.220 timesteps/s
100.0% CPU use with 1 MPI tasks x no OpenMP threads

MPI task timing breakdown:
Section |  min time  |  avg time  |  max time  |%varavg| %total
---------------------------------------------------------------
Pair    | 0          | 0          | 0          |   0.0 |  0.00
Bond    | 0.00020058 | 0.00020058 | 0.00020058 |   0.0 | 69.62
Neigh   | 0          | 0          | 0          |   0.0 |  0.00
Comm    | 1.798e-05  | 1.798e-05  | 1.798e-05  |   0.0 |  6.24
Output  | 7.63e-06   | 7.63e-06   | 7.63e-06   |   0.0 |  2.65
Modify  | 4.6749e-05 | 4.6749e-05 | 4.6749e-05 |   0.0 | 16.23
Other   |            | 1.518e-05  |            |       |  5.27

Nlocal:        19.0000 ave          19 max          19 min
Histogram: 1 0 0 0 0 0 0 0 0 0
Nghost:        20.0000 ave          20 max          20 min
Histogram: 1 0 0 0 0 0 0 0 0 0
Neighs:        0.00000 ave           0 max           0 min
Histogram: 1 0 0 0 0 0 0 0 0 0

Total # of neighbors = 0
Ave neighs/atom = 0.0000000
Ave special neighs/atom = 5.6842105
Neighbor list builds = 0
Dangerous builds = 0
unfix		10
unfix		2
group		holdgroup clear
next		a
jump 		in.pdms loop


pair_style 	lj/cut 3.367386145
special_bonds	lj 0.0 0.0 0.0
pair_coeff     	* * 0.1 3.0

#minimize 	1.0e-6 1.0e-8 1000 10000

reset_timestep  0

fix		10 all nvt temp 300.0 300.0 10.0
fix		20 all deform 1 z final 0.0 3.0 units box
run		2000
Neighbor list info ...
  update every 1 steps, delay 10 steps, check yes
  max neighbors/atom: 2000, page size: 100000
  master list distance cutoff = 5.3673861
  ghost atom cutoff = 5.3673861
  binsize = 2.6836931, bins = 8 8 8
  1 neighbor lists, perpetual/occasional/extra = 1 0 0
  (1) pair lj/cut, perpetual
      attributes: half, newton on
      pair build: half/bin/newton
      stencil: half/bin/3d/newton
      bin: standard
Per MPI rank memory allocation (min/avg/max) = 9.510 | 9.510 | 9.510 Mbytes
Step Time TotEng PotEng KinEng Temp Press Pxx Pyy Pzz Pxy Pxz Pyz Lx Ly Lz 
       0        30000    914.97235    914.01062    0.9617216    17.924315    278.13691    481.37854    145.10853    207.92365   -100.83892   -304.25473     19.57986           20           20           20 
    1000        31000    937.23344    924.08874    13.144694    244.98737   -710.76255   -365.82813   -1327.1514   -439.30809   -1550.7713    138.41541     1136.716           20           20         11.5 
    2000        32000    942.52014    922.99256    19.527584    363.94999    2440.9068     4242.937   -921.96273    4001.7462    -366.5896    815.92048    504.99027           20           20            3 
WARNING: Bond/angle/dihedral extent > half of periodic box length (../domain.cpp:933)
Loop time of 0.00644962 on 1 procs for 2000 steps with 19 atoms

Performance: 26792.284 ns/day, 0.001 hours/ns, 310095.885 timesteps/s
99.9% CPU use with 1 MPI tasks x no OpenMP threads

MPI task timing breakdown:
Section |  min time  |  avg time  |  max time  |%varavg| %total
---------------------------------------------------------------
Pair    | 0.00020273 | 0.00020273 | 0.00020273 |   0.0 |  3.14
Bond    | 0.0039751  | 0.0039751  | 0.0039751  |   0.0 | 61.63
Neigh   | 0.0002101  | 0.0002101  | 0.0002101  |   0.0 |  3.26
Comm    | 0.00051742 | 0.00051742 | 0.00051742 |   0.0 |  8.02
Output  | 7.0769e-05 | 7.0769e-05 | 7.0769e-05 |   0.0 |  1.10
Modify  | 0.0011559  | 0.0011559  | 0.0011559  |   0.0 | 17.92
Other   |            | 0.0003175  |            |       |  4.92

Nlocal:        19.0000 ave          19 max          19 min
Histogram: 1 0 0 0 0 0 0 0 0 0
Nghost:        141.000 ave         141 max         141 min
Histogram: 1 0 0 0 0 0 0 0 0 0
Neighs:        124.000 ave         124 max         124 min
Histogram: 1 0 0 0 0 0 0 0 0 0

Total # of neighbors = 124
Ave neighs/atom = 6.5263158
Ave special neighs/atom = 5.6842105
Neighbor list builds = 29
Dangerous builds = 0
unfix		20
unfix		10

minimize 	1.0e-6 1.0e-8 1000 10000
WARNING: Using 'neigh_modify every 1 delay 0 check yes' setting during minimization (../min.cpp:187)
  Parameters for fire: 
    dmax delaystep dtgrow dtshrink alpha0 alphashrink tmax tmin    integrator halfstepback 
     0.1        20    1.1      0.5   0.25        0.99   10 0.02 eulerimplicit          yes 
WARNING: Bond/angle/dihedral extent > half of periodic box length (../domain.cpp:933)
Per MPI rank memory allocation (min/avg/max) = 9.518 | 9.518 | 9.518 Mbytes
Step Time TotEng PotEng KinEng Temp Press Pxx Pyy Pzz Pxy Pxz Pyz Lx Ly Lz 
    2000        32000    923.15909    923.15909            0            0    1837.2081    3407.9541   -1357.0767    3460.7468   -93.810647    240.44287    650.80057           20           20            3 
    2041     32022.55    912.37321    912.36604 0.0071686011   0.13360651    1254.4769    152.33703    200.43734    3410.6562    501.87701    172.36299    182.00172           20           20            3 
WARNING: Bond/angle/dihedral extent > half of periodic box length (../domain.cpp:933)
Loop time of 0.000207818 on 1 procs for 41 steps with 19 atoms

99.6% CPU use with 1 MPI tasks x no OpenMP threads

Minimization stats:
  Stopping criterion = energy tolerance
  Energy initial, next-to-last, final = 
      923.159087244403   912.366681845621   912.366041698657
  Force two-norm initial, final = 296.00605 1.6390959
  Force max component initial, final = 96.229214 0.56100947
  Final line search alpha, max atom move = 0.0000000 0.0000000
  Iterations, force evaluations = 41 44

MPI task timing breakdown:
Section |  min time  |  avg time  |  max time  |%varavg| %total
---------------------------------------------------------------
Pair    | 3.198e-05  | 3.198e-05  | 3.198e-05  |   0.0 | 15.39
Bond    | 9.6119e-05 | 9.6119e-05 | 9.6119e-05 |   0.0 | 46.25
Neigh   | 0          | 0          | 0          |   0.0 |  0.00
Comm    | 2.277e-05  | 2.277e-05  | 2.277e-05  |   0.0 | 10.96
Output  | 0          | 0          | 0          |   0.0 |  0.00
Modify  | 0          | 0          | 0          |   0.0 |  0.00
Other   |            | 5.695e-05  |            |       | 27.40

Nlocal:        19.0000 ave          19 max          19 min
Histogram: 1 0 0 0 0 0 0 0 0 0
Nghost:        149.000 ave         149 max         149 min
Histogram: 1 0 0 0 0 0 0 0 0 0
Neighs:        128.000 ave         128 max         128 min
Histogram: 1 0 0 0 0 0 0 0 0 0

Total # of neighbors = 128
Ave neighs/atom = 6.7368421
Ave special neighs/atom = 5.6842105
Neighbor list builds = 0
Dangerous builds = 0

Total wall time: 0:00:01
